
DEAL:3d::Checksum: 190316601
<?xml version="1.0"?>
<VTKFile type="PUnstructuredGrid" version="0.1" byte_order="LittleEndian">
  <PUnstructuredGrid GhostLevel="0">
    <PPoints>
      <PDataArray type="Float32" Name="Position" NumberOfComponents="3" format="ascii"/>
    </PPoints>
    <PCellData Scalars="mpirank,treeid">
      <PDataArray type="Int32" Name="mpirank" format="ascii"/>
      <PDataArray type="Int32" Name="treeid" format="ascii"/>
    </PCellData>
    <PPointData>
    </PPointData>
    <Piece Source="2_0000.vtu"/>
  </PUnstructuredGrid>
</VTKFile>

<?xml version="1.0"?>
<VTKFile type="UnstructuredGrid" version="0.1" byte_order="LittleEndian">
  <UnstructuredGrid>
    <Piece NumberOfPoints="64" NumberOfCells="8">
      <Points>
        <DataArray type="Float32" Name="Position" NumberOfComponents="3" format="ascii">
            1.25000002e-02   1.25000002e-02   1.25000002e-02
            4.87500012e-01   1.25000002e-02   1.25000002e-02
            1.25000002e-02   4.87500012e-01   1.25000002e-02
            4.87500012e-01   4.87500012e-01   1.25000002e-02
            1.25000002e-02   1.25000002e-02   4.87500012e-01
            4.87500012e-01   1.25000002e-02   4.87500012e-01
            1.25000002e-02   4.87500012e-01   4.87500012e-01
            4.87500012e-01   4.87500012e-01   4.87500012e-01
            5.12499988e-01   1.25000002e-02   1.25000002e-02
            9.87500012e-01   1.25000002e-02   1.25000002e-02
            5.12499988e-01   4.87500012e-01   1.25000002e-02
            9.87500012e-01   4.87500012e-01   1.25000002e-02
            5.12499988e-01   1.25000002e-02   4.87500012e-01
            9.87500012e-01   1.25000002e-02   4.87500012e-01
            5.12499988e-01   4.87500012e-01   4.87500012e-01
            9.87500012e-01   4.87500012e-01   4.87500012e-01
            1.25000002e-02   5.12499988e-01   1.25000002e-02
            4.87500012e-01   5.12499988e-01   1.25000002e-02
            1.25000002e-02   9.87500012e-01   1.25000002e-02
            4.87500012e-01   9.87500012e-01   1.25000002e-02
            1.25000002e-02   5.12499988e-01   4.87500012e-01
            4.87500012e-01   5.12499988e-01   4.87500012e-01
            1.25000002e-02   9.87500012e-01   4.87500012e-01
            4.87500012e-01   9.87500012e-01   4.87500012e-01
            5.12499988e-01   5.12499988e-01   1.25000002e-02
            9.87500012e-01   5.12499988e-01   1.25000002e-02
            5.12499988e-01   9.87500012e-01   1.25000002e-02
            9.87500012e-01   9.87500012e-01   1.25000002e-02
            5.12499988e-01   5.12499988e-01   4.87500012e-01
            9.87500012e-01   5.12499988e-01   4.87500012e-01
            5.12499988e-01   9.87500012e-01   4.87500012e-01
            9.87500012e-01   9.87500012e-01   4.87500012e-01
            1.25000002e-02   1.25000002e-02   5.12499988e-01
            4.87500012e-01   1.25000002e-02   5.12499988e-01
            1.25000002e-02   4.87500012e-01   5.12499988e-01
            4.87500012e-01   4.87500012e-01   5.12499988e-01
            1.25000002e-02   1.25000002e-02   9.87500012e-01
            4.87500012e-01   1.25000002e-02   9.87500012e-01
            1.25000002e-02   4.87500012e-01   9.87500012e-01
            4.87500012e-01   4.87500012e-01   9.87500012e-01
            5.12499988e-01   1.25000002e-02   5.12499988e-01
            9.87500012e-01   1.25000002e-02   5.12499988e-01
            5.12499988e-01   4.87500012e-01   5.12499988e-01
            9.87500012e-01   4.87500012e-01   5.12499988e-01
            5.12499988e-01   1.25000002e-02   9.87500012e-01
            9.87500012e-01   1.25000002e-02   9.87500012e-01
            5.12499988e-01   4.87500012e-01   9.87500012e-01
            9.87500012e-01   4.87500012e-01   9.87500012e-01
            1.25000002e-02   5.12499988e-01   5.12499988e-01
            4.87500012e-01   5.12499988e-01   5.12499988e-01
            1.25000002e-02   9.87500012e-01   5.12499988e-01
            4.87500012e-01   9.87500012e-01   5.12499988e-01
            1.25000002e-02   5.12499988e-01   9.87500012e-01
            4.87500012e-01   5.12499988e-01   9.87500012e-01
            1.25000002e-02   9.87500012e-01   9.87500012e-01
            4.87500012e-01   9.87500012e-01   9.87500012e-01
            5.12499988e-01   5.12499988e-01   5.12499988e-01
            9.87500012e-01   5.12499988e-01   5.12499988e-01
            5.12499988e-01   9.87500012e-01   5.12499988e-01
            9.87500012e-01   9.87500012e-01   5.12499988e-01
            5.12499988e-01   5.12499988e-01   9.87500012e-01
            9.87500012e-01   5.12499988e-01   9.87500012e-01
            5.12499988e-01   9.87500012e-01   9.87500012e-01
            9.87500012e-01   9.87500012e-01   9.87500012e-01
        </DataArray>
      </Points>
      <Cells>
        <DataArray type="Int32" Name="connectivity" format="ascii">
          0 1 2 3 4 5 6 7
          8 9 10 11 12 13 14 15
          16 17 18 19 20 21 22 23
          24 25 26 27 28 29 30 31
          32 33 34 35 36 37 38 39
          40 41 42 43 44 45 46 47
          48 49 50 51 52 53 54 55
          56 57 58 59 60 61 62 63
        </DataArray>
        <DataArray type="Int32" Name="offsets" format="ascii">
          8 16 24 32 40 48 56 64
        </DataArray>
        <DataArray type="UInt8" Name="types" format="ascii">
          11 11 11 11 11 11 11 11
        </DataArray>
      </Cells>
      <CellData Scalars="mpirank,treeid">
        <DataArray type="Int32" Name="mpirank" format="ascii">
          0 0 0 0 0 0 0 0
        </DataArray>
        <DataArray type="Int32" Name="treeid" format="ascii">
          0 0 0 0 0 0 0 0
        </DataArray>
      </CellData>
      <PointData>
      </PointData>
    </Piece>
  </UnstructuredGrid>
</VTKFile>

