# vtk DataFile Version 2.0
Mesquite Mesh original_mesh .
ASCII
DATASET UNSTRUCTURED_GRID
POINTS 216 float
5 -5 5
5 5 5
5 -3 5
5 -1 5
5 1 5
5 3 5
-5 5 5
3 5 5
1 5 5
-1 5 5
-3 5 5
-5 -5 5
-5 3 5
-5 1 5
-5 -1 5
-5 -3 5
-3 -5 5
-1 -5 5
1 -5 5
3 -5 5
3 -3 5
1 -3 5
-1 -3 5
-3 -3 5
3 -1 5
1 -1 5
-1 -1 5
-3 -1 5
3 1 5
1 1 5
-1 1 5
-3 1 5
3 3 5
1 3 5
-1 3 5
-3 3 5
5 5 -5
5 -5 -5
5 3 -5
5 1 -5
5 -1 -5
5 -3 -5
-5 -5 -5
3 -5 -5
1 -5 -5
-1 -5 -5
-3 -5 -5
-5 5 -5
-5 -3 -5
-5 -1 -5
-5 1 -5
-5 3 -5
-3 5 -5
-1 5 -5
1 5 -5
3 5 -5
3 3 -5
1 3 -5
-1 3 -5
-3 3 -5
3 1 -5
1 1 -5
-1 1 -5
-3 1 -5
3 -1 -5
1 -1 -5
-1 -1 -5
-3 -1 -5
3 -3 -5
1 -3 -5
-1 -3 -5
-3 -3 -5
-5 -5 3
-5 -5 1
-5 -5 -1
-5 -5 -3
5 -5 3
5 -5 1
5 -5 -1
5 -5 -3
-3 -5 3
-1 -5 3
1 -5 3
3 -5 3
-3 -5 1
-1 -5 1
1 -5 1
3 -5 1
-3 -5 -1
-1 -5 -1
1 -5 -1
3 -5 -1
-3 -5 -3
-1 -5 -3
1 -5 -3
3 -5 -3
-5 5 3
-5 5 1
-5 5 -1
-5 5 -3
-5 3 3
-5 1 3
-5 -1 3
-5 -3 3
-5 3 1
-5 1 1
-5 -1 1
-5 -3 1
-5 3 -1
-5 1 -1
-5 -1 -1
-5 -3 -1
-5 3 -3
-5 1 -3
-5 -1 -3
-5 -3 -3
5 5 3
5 5 1
5 5 -1
5 5 -3
3 5 3
1 5 3
-1 5 3
-3 5 3
3 5 1
1 5 1
-1 5 1
-3 5 1
3 5 -1
1 5 -1
-1 5 -1
-3 5 -1
3 5 -3
1 5 -3
-1 5 -3
-3 5 -3
5 -3 3
5 -1 3
5 1 3
5 3 3
5 -3 1
5 -1 1
5 1 1
5 3 1
5 -3 -1
5 -1 -1
5 1 -1
5 3 -1
5 -3 -3
5 -1 -3
5 1 -3
5 3 -3
-1.74988 -3.36194 3.03119
-3.53058 -1.95938 0.910502
-4.04016 -4.31085 -1.22644
-3.89901 -3.77337 -3.40081
-1.89819 -1.62722 3.42801
-3.63403 -0.278384 1.24694
-2.59632 -0.718737 -0.220825
-3.18249 -1.52893 -3.34097
-3.17721 0.726249 3.91122
-3.39469 1.00228 0.712968
-3.15145 1.52858 -1.02888
-2.7375 1.11274 -2.41968
-4.17893 2.84883 3.91132
-3.12164 1.89438 0.530028
-2.86281 3.07866 -1.01614
-3.56406 2.3789 -3.75133
-2.3265 -2.77365 2.97002
-1.46484 -2.91651 1.25492
-0.967264 -4.53585 -2.0334
-1.23646 -2.94993 -3.34862
-1.63481 0.534622 2.30619
-0.498443 -1.89163 1.18547
-0.648742 -1.53662 -0.903581
0.0513263 -0.849847 -3.14702
-1.57729 1.20336 2.80611
-2.13957 0.293103 0.977724
-1.87861 0.85756 -0.747104
-1.38077 0.532826 -2.5821
-0.469087 2.6609 3.36082
-1.1665 3.02303 1.33381
-0.510652 4.1225 -1.15063
-2.15854 2.32431 -3.59147
0.745052 -4.63093 3.03145
0.995742 -2.4677 2.41751
2.0223 -3.34346 -0.250549
-0.0247061 -3.63828 -3.28682
1.40921 -0.989453 3.64814
1.97539 0.274387 1.6343
-0.215878 -0.843867 -1.34719
2.1055 -0.271191 -3.6707
0.281797 -0.367563 1.4365
0.155243 1.7357 3.00609
0.652586 2.47022 -1.49212
1.22815 0.644637 -4.52375
0.789836 2.4019 3.0122
1.43896 3.2238 2.42886
0.335959 3.55005 0.0116936
-0.402842 2.71296 -2.74805
2.92212 -2.38569 3.9761
3.38697 -2.69949 0.359675
3.76541 -1.68351 -1.63566
4.7182 -2.7244 -2.86486
2.61939 -2.10437 2.96137
3.4437 -1.16552 1.3523
3.20009 -1.18027 -1.3378
3.50904 -1.38828 -2.50807
2.92997 -0.306792 3.39258
4.12053 1.4469 1.24188
3.6352 0.270091 -1.4512
2.48617 1.85767 -3.36814
4.01365 2.87178 4.24742
2.38529 2.33491 1.20526
3.47624 2.23003 -1.17916
2.77642 2.16246 -2.1708
CELLS 125 1125
8 11 72 103 15 16 80 152 23 
8 72 73 107 103 80 84 153 152 
8 73 74 111 107 84 88 154 153 
8 74 75 115 111 88 92 155 154 
8 75 42 48 115 92 46 71 155 
8 15 103 102 14 23 152 156 27 
8 103 107 106 102 152 153 157 156 
8 107 111 110 106 153 154 158 157 
8 111 115 114 110 154 155 159 158 
8 115 48 49 114 155 71 67 159 
8 14 102 101 13 27 156 160 31 
8 102 106 105 101 156 157 161 160 
8 106 110 109 105 157 158 162 161 
8 110 114 113 109 158 159 163 162 
8 114 49 50 113 159 67 63 163 
8 13 101 100 12 31 160 164 35 
8 101 105 104 100 160 161 165 164 
8 105 109 108 104 161 162 166 165 
8 109 113 112 108 162 163 167 166 
8 113 50 51 112 163 63 59 167 
8 12 100 96 6 35 164 123 10 
8 100 104 97 96 164 165 127 123 
8 104 108 98 97 165 166 131 127 
8 108 112 99 98 166 167 135 131 
8 112 51 47 99 167 59 52 135 
8 16 80 152 23 17 81 168 22 
8 80 84 153 152 81 85 169 168 
8 84 88 154 153 85 89 170 169 
8 88 92 155 154 89 93 171 170 
8 92 46 71 155 93 45 70 171 
8 23 152 156 27 22 168 172 26 
8 152 153 157 156 168 169 173 172 
8 153 154 158 157 169 170 174 173 
8 154 155 159 158 170 171 175 174 
8 155 71 67 159 171 70 66 175 
8 27 156 160 31 26 172 176 30 
8 156 157 161 160 172 173 177 176 
8 157 158 162 161 173 174 178 177 
8 158 159 163 162 174 175 179 178 
8 159 67 63 163 175 66 62 179 
8 31 160 164 35 30 176 180 34 
8 160 161 165 164 176 177 181 180 
8 161 162 166 165 177 178 182 181 
8 162 163 167 166 178 179 183 182 
8 163 63 59 167 179 62 58 183 
8 35 164 123 10 34 180 122 9 
8 164 165 127 123 180 181 126 122 
8 165 166 131 127 181 182 130 126 
8 166 167 135 131 182 183 134 130 
8 167 59 52 135 183 58 53 134 
8 17 81 168 22 18 82 184 21 
8 81 85 169 168 82 86 185 184 
8 85 89 170 169 86 90 186 185 
8 89 93 171 170 90 94 187 186 
8 93 45 70 171 94 44 69 187 
8 22 168 172 26 21 184 188 25 
8 168 169 173 172 184 185 189 188 
8 169 170 174 173 185 186 190 189 
8 170 171 175 174 186 187 191 190 
8 171 70 66 175 187 69 65 191 
8 26 172 176 30 25 188 192 29 
8 172 173 177 176 188 189 193 192 
8 173 174 178 177 189 190 194 193 
8 174 175 179 178 190 191 195 194 
8 175 66 62 179 191 65 61 195 
8 30 176 180 34 29 192 196 33 
8 176 177 181 180 192 193 197 196 
8 177 178 182 181 193 194 198 197 
8 178 179 183 182 194 195 199 198 
8 179 62 58 183 195 61 57 199 
8 34 180 122 9 33 196 121 8 
8 180 181 126 122 196 197 125 121 
8 181 182 130 126 197 198 129 125 
8 182 183 134 130 198 199 133 129 
8 183 58 53 134 199 57 54 133 
8 18 82 184 21 19 83 200 20 
8 82 86 185 184 83 87 201 200 
8 86 90 186 185 87 91 202 201 
8 90 94 187 186 91 95 203 202 
8 94 44 69 187 95 43 68 203 
8 21 184 188 25 20 200 204 24 
8 184 185 189 188 200 201 205 204 
8 185 186 190 189 201 202 206 205 
8 186 187 191 190 202 203 207 206 
8 187 69 65 191 203 68 64 207 
8 25 188 192 29 24 204 208 28 
8 188 189 193 192 204 205 209 208 
8 189 190 194 193 205 206 210 209 
8 190 191 195 194 206 207 211 210 
8 191 65 61 195 207 64 60 211 
8 29 192 196 33 28 208 212 32 
8 192 193 197 196 208 209 213 212 
8 193 194 198 197 209 210 214 213 
8 194 195 199 198 210 211 215 214 
8 195 61 57 199 211 60 56 215 
8 33 196 121 8 32 212 120 7 
8 196 197 125 121 212 213 124 120 
8 197 198 129 125 213 214 128 124 
8 198 199 133 129 214 215 132 128 
8 199 57 54 133 215 56 55 132 
8 19 83 200 20 0 76 136 2 
8 83 87 201 200 76 77 140 136 
8 87 91 202 201 77 78 144 140 
8 91 95 203 202 78 79 148 144 
8 95 43 68 203 79 37 41 148 
8 20 200 204 24 2 136 137 3 
8 200 201 205 204 136 140 141 137 
8 201 202 206 205 140 144 145 141 
8 202 203 207 206 144 148 149 145 
8 203 68 64 207 148 41 40 149 
8 24 204 208 28 3 137 138 4 
8 204 205 209 208 137 141 142 138 
8 205 206 210 209 141 145 146 142 
8 206 207 211 210 145 149 150 146 
8 207 64 60 211 149 40 39 150 
8 28 208 212 32 4 138 139 5 
8 208 209 213 212 138 142 143 139 
8 209 210 214 213 142 146 147 143 
8 210 211 215 214 146 150 151 147 
8 211 60 56 215 150 39 38 151 
8 32 212 120 7 5 139 116 1 
8 212 213 124 120 139 143 117 116 
8 213 214 128 124 143 147 118 117 
8 214 215 132 128 147 151 119 118 
8 215 56 55 132 151 38 36 119 
CELL_TYPES 125
12
12
12
12
12
12
12
12
12
12
12
12
12
12
12
12
12
12
12
12
12
12
12
12
12
12
12
12
12
12
12
12
12
12
12
12
12
12
12
12
12
12
12
12
12
12
12
12
12
12
12
12
12
12
12
12
12
12
12
12
12
12
12
12
12
12
12
12
12
12
12
12
12
12
12
12
12
12
12
12
12
12
12
12
12
12
12
12
12
12
12
12
12
12
12
12
12
12
12
12
12
12
12
12
12
12
12
12
12
12
12
12
12
12
12
12
12
12
12
12
12
12
12
12
12
POINT_DATA 216
SCALARS fixed float
LOOKUP_TABLE default
1
1
1
1
1
1
1
1
1
1
1
1
1
1
1
1
1
1
1
1
1
1
1
1
1
1
1
1
1
1
1
1
1
1
1
1
1
1
1
1
1
1
1
1
1
1
1
1
1
1
1
1
1
1
1
1
1
1
1
1
1
1
1
1
1
1
1
1
1
1
1
1
1
1
1
1
1
1
1
1
1
1
1
1
1
1
1
1
1
1
1
1
1
1
1
1
1
1
1
1
1
1
1
1
1
1
1
1
1
1
1
1
1
1
1
1
1
1
1
1
1
1
1
1
1
1
1
1
1
1
1
1
1
1
1
1
1
1
1
1
1
1
1
1
1
1
1
1
1
1
1
1
0
0
0
0
0
0
0
0
0
0
0
0
0
0
0
0
0
0
0
0
0
0
0
0
0
0
0
0
0
0
0
0
0
0
0
0
0
0
0
0
0
0
0
0
0
0
0
0
0
0
0
0
0
0
0
0
0
0
0
0
0
0
0
0
