
<?xml version="1.0" ?> 
<!-- 
# vtk DataFile Version 3.0
#This file was generated 
-->
<VTKFile type="UnstructuredGrid" version="0.1" byte_order="LittleEndian">
<UnstructuredGrid>
<Piece NumberOfPoints="16" NumberOfCells="4" >
  <Points>
    <DataArray type="Float32" NumberOfComponents="3" format="ascii">
0.00000 0.00000 0
0.500000 0.00000 0
0.00000 0.500000 0
0.500000 0.500000 0
0.500000 0.00000 0
1.00000 0.00000 0
0.500000 0.500000 0
1.00000 0.500000 0
0.00000 0.500000 0
0.500000 0.500000 0
0.00000 1.00000 0
0.500000 1.00000 0
0.500000 0.500000 0
1.00000 0.500000 0
0.500000 1.00000 0
1.00000 1.00000 0
    </DataArray>
  </Points>

  <Cells>
    <DataArray type="Int32" Name="connectivity" format="ascii">
0	1	3	2
4	5	7	6
8	9	11	10
12	13	15	14
    </DataArray>
    <DataArray type="Int32" Name="offsets" format="ascii">
4 8 12 16 
    </DataArray>
    <DataArray type="UInt8" Name="types" format="ascii">
9 9 9 9 
    </DataArray>
  </Cells>
  <PointData Scalars="scalars">
    <DataArray type="Float32" Name="Solution_0" format="ascii">
0.00000 0.00000 0.00000 0.00000 0.00000 0.00000 0.00000 0.00000 1.00000 1.00000 1.00000 1.00000 1.00000 1.00000 1.00000 1.00000 
    </DataArray>
    <DataArray type="Float32" Name="Solution_1" format="ascii">
0.00000 0.00000 0.00000 0.00000 0.00000 0.00000 0.00000 0.00000 1.00000 1.00000 1.00000 1.00000 1.00000 1.00000 1.00000 1.00000 
    </DataArray>
  </PointData>
 </Piece>
 </UnstructuredGrid>
</VTKFile>
DEAL::OK
