# vtk DataFile Version 2.0
Mesquite Mesh ../../meshFiles/2D/vtk/quads/tangled/hole_in_square.vtk .
ASCII
DATASET UNSTRUCTURED_GRID
POINTS 168 float
1.19868765962713 1.0388202200088e-15 -5
0.993817567295394 0.97841467725108 -5
0.418513607872729 1.79639766152964 -5
-0.426181259463787 2.33266151075079 -5
-1.40963577802749 2.51854236857724 -5
-2.39309029659119 2.33266151075079 -5
-3.23778516392771 1.79639766152964 -5
-3.81308912335037 0.978414677251078 -5
-4.0179592156821 -7.30397921315744e-16 -5
-3.81308912335037 -0.97841467725108 -5
-3.23778516392771 -1.79639766152964 -5
-2.39309029659118 -2.33266151075079 -5
-1.40963577802749 -2.51854236857724 -5
-0.426181259463786 -2.33266151075079 -5
0.41851360787273 -1.79639766152964 -5
0.993817567295394 -0.978414677251078 -5
-5 -5 -5
5 -5 -5
4 -5 -5
3 -5 -5
2 -5 -5
1 -5 -5
0 -5 -5
-1 -5 -5
-2 -5 -5
-3 -5 -5
-4 -5 -5
-5 5 -5
-5 -4 -5
-5 -3 -5
-5 -2 -5
-5 -1 -5
-5 0 -5
-5 1 -5
-5 2 -5
-5 3 -5
-5 4 -5
5 5 -5
-4 5 -5
-3 5 -5
-2 5 -5
-1 5 -5
0 5 -5
1 5 -5
2 5 -5
3 5 -5
4 5 -5
5 4 -5
5 3 -5
5 2 -5
5 1 -5
5 0 -5
5 -1 -5
5 -2 -5
5 -3 -5
5 -4 -5
2.33558251719096 -0.107045740322422 -5
1.76116274113388 -0.751373036166491 -5
1.96000946216721 0.201014195123107 -5
4.14173045375419 0.390349068837431 -5
3.88004538893721 0.123253974216288 -5
3.61421257194526 -0.686064483700912 -5
0.586992023173827 1.77783522995442 -5
1.77273368847903 1.47674961243878 -5
2.47085290291208 -2.55929367529748 -5
0.64116863235355 -2.53735264356221 -5
0.265213547489939 -3.06147590833472 -5
2.45230270153771 -3.10047686778939 -5
1.04255288340275 -2.53964566159245 -5
0.269230745377601 -3.08401670075294 -5
-0.901232644530917 -3.20018144853218 -5
-1.46549983655474 -2.96559415536855 -5
-2.19625696424017 -2.69791329128246 -5
-1.46917312832427 -3.51412312166661 -5
-2.17987130356936 -2.9088427348881 -5
-2.40626526879296 -2.66290745338123 -5
-2.95251255267803 -2.16588896026918 -5
-3.02297495195102 -2.10266548460471 -5
-3.8773903994585 -1.24541181140688 -5
-3.99241622680793 -1.3485076677808 -5
-4.01312821225008 -0.0696090309486662 -5
-4.06168720569873 0.152632712113786 -5
-4.03995863087844 0.65860831581483 -5
-3.35244103723964 -1.80994955709908 -5
-3.85488223587829 -1.34043794706609 -5
-4.26651941450729 -1.86340895843783 -5
-4.47617524683746 -0.466908932869157 -5
-4.41844808827862 -0.493416430955632 -5
-4.32483918273057 -0.390654862914492 -5
-4.16811974269691 0.123054479666884 -5
-4.29470399100162 0.366887546444096 -5
-4.28808880150699 0.377419815521393 -5
-3.47324964957223 -1.71474805006211 -5
-3.8759458725205 -1.39132042019219 -5
-4.24538648548741 -2.02390305738331 -5
-4.23080439504751 -2.14276102973005 -5
-4.61054570145879 -0.838859258127288 -5
-4.48531994777867 -0.460840236488795 -5
-4.4490958484328 -0.434074891307972 -5
-4.28512692960536 -0.161212766007475 -5
-4.17880558486051 0.13776839540917 -5
-4.33358200501897 0.437852339364174 -5
-3.94647506231139 1.0257061073936 -5
-2.92395325326878 2.9108537162537 -5
-3.45724506265194 1.91229387233854 -5
-2.23892131810887 2.4956505600784 -5
-0.807526464212078 2.66144732548445 -5
-2.17826173606694 2.97146839960776 -5
-0.594151124169511 2.47974288002622 -5
2.54992164088809 2.11978452722374 -5
2.96196184324695 4.49863259351215 -5
2.91935378402148 4.76837607951498 -5
1.10847581997056 4.59369539313599 -5
0.121342996320121 4.80725844954535 -5
-0.704651601203889 4.70065725745179 -5
-2.51408183302645 4.09994564470851 -5
-3.35122376079086 4.20052558824753 -5
-3.81799111555993 4.05607151680979 -5
-4.78231986308106 3.87925973271763 -5
-4.57893915732357 3.33686471796932 -5
-4.76054895766824 1.8459043410882 -5
-4.98318667028381 0.607722751189473 -5
-4.97403321930511 -0.336515153523083 -5
-4.92460227970693 -0.988793184872988 -5
-4.74942267209428 -1.27146817118736 -5
-4.99162556520668 -2.94251515328982 -5
-4.9213335051749 -3.58323071272142 -5
-3.97764876882789 -4.26853703779992 -5
-1.98552090985791 -4.26561837556247 -5
-1.88072195916919 -3.46435613066527 -5
-1.18199262921335 -3.98864231758734 -5
-0.714760904184222 -4.07855099366161 -5
0.774546703269151 -3.91857179822797 -5
3.68448196469067 -4.54541359860661 -5
3.73457649011099 -4.55367471126013 -5
4.44594439094691 -3.51149500949226 -5
3.23536249085906 -1.61922842520337 -5
0.722398398237359 1.92569837299114 -5
0.486939211174313 2.96446619685306 -5
-0.196619493631705 3.47900404292119 -5
-2.17393336458159 2.97722357317805 -5
-1.94321154499587 3.36036627752442 -5
-2.85359161749358 3.46405324568041 -5
-4.31549271342772 2.92354056314164 -5
-4.37307294953208 -2.79967790704084 -5
-3.68728342676227 -2.89050908890129 -5
-2.54170765801172 -2.9216326534787 -5
-1.71086151491106 -3.47811194172025 -5
-1.33500187209702 -3.62928794998577 -5
0.78809140751929 -3.19445481540705 -5
1.03881818104754 -3.1177038007005 -5
-4.67727401378714 1.47961427155539 -5
-4.80615241680785 0.960865597965481 -5
-4.80670241369478 0.936197502569184 -5
-4.74857066300081 -1.26719058511707 -5
-4.2229366504859 -2.11434976434034 -5
-4.61237932053061 -0.878371116960273 -5
-4.27424050443572 0.223843221082842 -5
-4.20451985549843 0.158026163296459 -5
-4.33758886615829 2.27183687855365 -5
-4.41218165614606 0.95225632728728 -5
-4.35598852372928 0.437886573119309 -5
-4.23059358263541 -2.14419489547046 -5
-4.68558884514294 0.0824743765816645 -5
-4.82513582238657 0.443997338516683 -5
2.23312353315055 -2.36470033325091 -5
-0.209242579768921 2.98911571768088 -5
-3.00655368014787 3.68946082739311 -5
CELLS 140 700
4 57 15 0 56
4 65 14 15 57
4 58 56 0 1
4 59 60 56 58
4 61 57 56 60
4 62 58 1 2
4 63 59 58 62
4 49 50 59 63
4 51 60 59 50
4 52 61 60 51
4 66 13 14 65
4 69 66 65 68
4 70 71 66 69
4 12 13 66 71
4 72 11 12 71
4 73 72 71 70
4 74 75 72 73
4 76 11 72 75
4 77 10 11 76
4 78 9 10 77
4 79 80 9 78
4 81 8 9 80
4 82 7 8 81
4 83 77 76 75
4 84 78 77 83
4 85 79 78 84
4 86 87 79 85
4 88 80 79 87
4 89 81 80 88
4 90 82 81 89
4 91 7 82 90
4 92 83 75 74
4 93 84 83 92
4 94 85 84 93
4 95 86 85 94
4 96 97 86 95
4 98 87 86 97
4 99 88 87 98
4 100 89 88 99
4 101 90 89 100
4 102 91 90 101
4 103 104 91 102
4 105 5 6 104
4 106 4 5 105
4 107 105 104 103
4 62 2 3 108
4 109 48 49 63
4 110 47 48 109
4 46 37 47 110
4 111 45 46 110
4 112 44 45 111
4 113 43 44 112
4 114 42 43 113
4 115 41 42 114
4 116 40 41 115
4 117 39 40 116
4 118 38 39 117
4 36 27 38 118
4 119 35 36 118
4 120 34 35 119
4 121 33 34 120
4 122 32 33 121
4 123 31 32 122
4 124 30 31 123
4 125 29 30 124
4 126 28 29 125
4 26 16 28 126
4 127 25 26 126
4 128 24 25 127
4 129 23 24 128
4 130 22 23 129
4 131 21 22 130
4 132 20 21 131
4 133 19 20 132
4 134 18 19 133
4 55 17 18 134
4 135 54 55 134
4 136 53 54 135
4 61 52 53 136
4 63 62 108 137
4 138 111 110 109
4 139 112 111 138
4 140 113 112 139
4 141 114 113 140
4 142 115 114 141
4 119 118 117 143
4 144 127 126 125
4 145 128 127 144
4 147 130 129 146
4 148 131 130 147
4 149 132 131 148
4 150 133 132 149
4 151 120 119 143
4 152 121 120 151
4 153 122 121 152
4 164 123 122 153
4 154 124 123 164
4 69 68 67 150
4 149 70 69 150
4 148 73 70 149
4 147 74 73 148
4 146 92 74 147
4 145 93 92 146
4 146 129 128 145
4 155 94 93 145
4 162 95 94 155
4 156 96 95 162
4 154 163 96 156
4 157 97 96 163
4 161 101 100 158
4 160 102 101 161
4 159 103 102 160
4 109 63 137 138
4 160 151 143 159
4 161 152 151 160
4 162 155 145 144
4 125 156 162 144
4 124 154 156 125
4 152 157 163 153
4 161 158 157 152
4 164 153 163 154
4 158 98 97 157
4 100 99 98 158
4 134 67 64 135
4 133 150 67 134
4 67 68 165 64
4 135 64 165 136
4 61 136 165 57
4 65 57 165 68
4 7 91 104 6
4 106 108 3 4
4 166 137 108 106
4 139 138 137 166
4 140 139 166 107
4 107 166 106 105
4 103 141 140 107
4 159 142 141 103
4 143 117 116 167
4 159 143 167 142
4 167 116 115 142
CELL_TYPES 140
9
9
9
9
9
9
9
9
9
9
9
9
9
9
9
9
9
9
9
9
9
9
9
9
9
9
9
9
9
9
9
9
9
9
9
9
9
9
9
9
9
9
9
9
9
9
9
9
9
9
9
9
9
9
9
9
9
9
9
9
9
9
9
9
9
9
9
9
9
9
9
9
9
9
9
9
9
9
9
9
9
9
9
9
9
9
9
9
9
9
9
9
9
9
9
9
9
9
9
9
9
9
9
9
9
9
9
9
9
9
9
9
9
9
9
9
9
9
9
9
9
9
9
9
9
9
9
9
9
9
9
9
9
9
9
9
9
9
9
9
POINT_DATA 168
SCALARS fixed float
LOOKUP_TABLE default
1
1
1
1
1
1
1
1
1
1
1
1
1
1
1
1
1
1
1
1
1
1
1
1
1
1
1
1
1
1
1
1
1
1
1
1
1
1
1
1
1
1
1
1
1
1
1
1
1
1
1
1
1
1
1
1
0
0
0
0
0
0
0
0
0
0
0
0
0
0
0
0
0
0
0
0
0
0
0
0
0
0
0
0
0
0
0
0
0
0
0
0
0
0
0
0
0
0
0
0
0
0
0
0
0
0
0
0
0
0
0
0
0
0
0
0
0
0
0
0
0
0
0
0
0
0
0
0
0
0
0
0
0
0
0
0
0
0
0
0
0
0
0
0
0
0
0
0
0
0
0
0
0
0
0
0
0
0
0
0
0
0
0
0
0
0
0
0
