# vtk DataFile Version 3.0
Mesquite Mesh
ASCII
DATASET UNSTRUCTURED_GRID
POINTS 168 double
1.19868766 1.03882022e-15 -5
0.9938175673 0.9784146773 -5
0.4185136079 1.796397662 -5
-0.4261812595 2.332661511 -5
-1.409635778 2.518542369 -5
-2.393090297 2.332661511 -5
-3.237785164 1.796397662 -5
-3.813089123 0.9784146773 -5
-4.017959216 -7.303979213e-16 -5
-3.813089123 -0.9784146773 -5
-3.237785164 -1.796397662 -5
-2.393090297 -2.332661511 -5
-1.409635778 -2.518542369 -5
-0.4261812595 -2.332661511 -5
0.4185136079 -1.796397662 -5
0.9938175673 -0.9784146773 -5
-5 -5 -5
5 -5 -5
4 -5 -5
3 -5 -5
2 -5 -5
1 -5 -5
0 -5 -5
-1 -5 -5
-2 -5 -5
-3 -5 -5
-4 -5 -5
-5 5 -5
-5 -4 -5
-5 -3 -5
-5 -2 -5
-5 -1 -5
-5 0 -5
-5 1 -5
-5 2 -5
-5 3 -5
-5 4 -5
5 5 -5
-4 5 -5
-3 5 -5
-2 5 -5
-1 5 -5
0 5 -5
1 5 -5
2 5 -5
3 5 -5
4 5 -5
5 4 -5
5 3 -5
5 2 -5
5 1 -5
5 0 -5
5 -1 -5
5 -2 -5
5 -3 -5
5 -4 -5
2.229439412 -0.09840243417 -5
2.1439656 -1.265540032 -5
2.016828616 0.9182649974 -5
3.38018473 0.998887638 -5
3.55827577 -0.04633470257 -5
3.623478939 -1.085824014 -5
1.463872755 1.794160108 -5
2.945634533 2.123620257 -5
3.02257407 -2.725442686 -5
1.172377301 -2.022770818 -5
0.2823849247 -2.482396765 -5
2.524503607 -3.136466782 -5
1.844645072 -2.546748814 -5
0.9809845992 -2.885469444 -5
0.1218799405 -3.072484809 -5
-0.5976409416 -2.688685288 -5
-1.385192853 -2.681317208 -5
-0.6786228219 -3.109832547 -5
-1.368954143 -3.033182356 -5
-1.871417351 -2.594089485 -5
-2.35185994 -2.307452027 -5
-2.791072172 -1.995605085 -5
-3.194981115 -1.5241643 -5
-3.340885675 -1.125781203 -5
-3.587633458 -0.6022332425 -5
-3.688781851 0.0378628247 -5
-3.634253821 0.5844561049 -5
-2.379662466 -2.35440635 -5
-2.834877489 -1.996856236 -5
-3.146542165 -1.605159414 -5
-3.378907077 -1.218449222 -5
-3.434385958 -0.7715678575 -5
-3.507777181 -0.3425999144 -5
-3.515280908 0.1692284362 -5
-3.400890487 0.7370908124 -5
-3.149078392 1.337890418 -5
-2.021282852 -2.831074596 -5
-2.618324207 -2.50369488 -5
-3.031498415 -2.079550994 -5
-3.36365725 -1.718649755 -5
-3.668949889 -1.291347715 -5
-3.57104293 -0.7784198639 -5
-3.509973898 -0.3994410901 -5
-3.493808397 -0.1658269942 -5
-3.46367411 0.2445600218 -5
-3.304948827 0.8567882902 -5
-2.892586346 1.61397841 -5
-1.988268001 2.519913741 -5
-2.489747612 2.022077773 -5
-1.58385889 2.434109269 -5
-0.5740344867 2.545300159 -5
-0.8785631623 2.836397632 -5
0.4745142642 2.338357517 -5
3.449715134 3.143745253 -5
3.758617067 4.07829686 -5
2.584753135 4.169442186 -5
1.485786538 4.226407991 -5
0.4488255864 4.238429926 -5
-0.5255159763 4.225935678 -5
-1.411186777 4.232396056 -5
-2.239172467 4.219207076 -5
-3.116898099 4.066177319 -5
-4.061836077 4.014385959 -5
-4.130446211 2.991366516 -5
-4.293364916 1.919963863 -5
-4.426783678 0.8629046541 -5
-4.536849638 -0.07828107292 -5
-4.568012749 -0.9101366559 -5
-4.455304672 -1.73437367 -5
-4.134130753 -2.719711326 -5
-4.075381903 -3.932528278 -5
-3.167396858 -4.010401787 -5
-2.278595703 -4.078413396 -5
-1.36134788 -4.195954102 -5
-0.4486052269 -4.272388215 -5
0.4714205201 -4.295865963 -5
1.416511538 -4.258729821 -5
2.411826706 -4.133101362 -5
3.555766827 -3.833428241 -5
3.84250382 -2.897573062 -5
3.791674385 -2.031421323 -5
1.434400048 2.681308288 -5
2.094608936 3.373063894 -5
0.9095674288 3.497759851 -5
-0.1649682154 3.501376035 -5
-1.139702714 3.432916731 -5
-1.880058664 3.484441469 -5
-3.166583849 3.031116241 -5
-3.315609826 -3.030665475 -5
-2.585638072 -3.107297695 -5
-1.718190588 -3.433014797 -5
-0.9044935473 -3.597732796 -5
-0.08222423061 -3.652345816 -5
0.7827989269 -3.605951958 -5
1.67502846 -3.440247387 -5
-3.616229772 1.825584281 -5
-3.876920159 0.6099358264 -5
-4.152602124 -0.26589229 -5
-4.119075183 -1.307646698 -5
-2.997470035 -2.490699926 -5
-3.824357361 -1.900989207 -5
-3.726340852 -0.2044414288 -5
-3.540658306 0.1180503547 -5
-2.540740169 2.694198161 -5
-3.128050163 1.741321192 -5
-3.462644364 0.8315239158 -5
-3.375273618 -2.285251091 -5
-3.916742012 -0.7673320328 -5
-4.279896686 -0.8278918812 -5
2.700714782 -2.142288214 -5
0.2228424569 2.890191482 -5
-2.428604993 3.578254929 -5
CELLS 140 700
4 57 15 0 56
4 65 14 15 57
4 58 56 0 1
4 59 60 56 58
4 61 57 56 60
4 62 58 1 2
4 63 59 58 62
4 49 50 59 63
4 51 60 59 50
4 52 61 60 51
4 66 13 14 65
4 69 66 65 68
4 70 71 66 69
4 12 13 66 71
4 72 11 12 71
4 73 72 71 70
4 74 75 72 73
4 76 11 72 75
4 77 10 11 76
4 78 9 10 77
4 79 80 9 78
4 81 8 9 80
4 82 7 8 81
4 83 77 76 75
4 84 78 77 83
4 85 79 78 84
4 86 87 79 85
4 88 80 79 87
4 89 81 80 88
4 90 82 81 89
4 91 7 82 90
4 92 83 75 74
4 93 84 83 92
4 94 85 84 93
4 95 86 85 94
4 96 97 86 95
4 98 87 86 97
4 99 88 87 98
4 100 89 88 99
4 101 90 89 100
4 102 91 90 101
4 103 104 91 102
4 105 5 6 104
4 106 4 5 105
4 107 105 104 103
4 62 2 3 108
4 109 48 49 63
4 110 47 48 109
4 46 37 47 110
4 111 45 46 110
4 112 44 45 111
4 113 43 44 112
4 114 42 43 113
4 115 41 42 114
4 116 40 41 115
4 117 39 40 116
4 118 38 39 117
4 36 27 38 118
4 119 35 36 118
4 120 34 35 119
4 121 33 34 120
4 122 32 33 121
4 123 31 32 122
4 124 30 31 123
4 125 29 30 124
4 126 28 29 125
4 26 16 28 126
4 127 25 26 126
4 128 24 25 127
4 129 23 24 128
4 130 22 23 129
4 131 21 22 130
4 132 20 21 131
4 133 19 20 132
4 134 18 19 133
4 55 17 18 134
4 135 54 55 134
4 136 53 54 135
4 61 52 53 136
4 63 62 108 137
4 138 111 110 109
4 139 112 111 138
4 140 113 112 139
4 141 114 113 140
4 142 115 114 141
4 119 118 117 143
4 144 127 126 125
4 145 128 127 144
4 147 130 129 146
4 148 131 130 147
4 149 132 131 148
4 150 133 132 149
4 151 120 119 143
4 152 121 120 151
4 153 122 121 152
4 164 123 122 153
4 154 124 123 164
4 69 68 67 150
4 149 70 69 150
4 148 73 70 149
4 147 74 73 148
4 146 92 74 147
4 145 93 92 146
4 146 129 128 145
4 155 94 93 145
4 162 95 94 155
4 156 96 95 162
4 154 163 96 156
4 157 97 96 163
4 161 101 100 158
4 160 102 101 161
4 159 103 102 160
4 109 63 137 138
4 160 151 143 159
4 161 152 151 160
4 162 155 145 144
4 125 156 162 144
4 124 154 156 125
4 152 157 163 153
4 161 158 157 152
4 164 153 163 154
4 158 98 97 157
4 100 99 98 158
4 134 67 64 135
4 133 150 67 134
4 67 68 165 64
4 135 64 165 136
4 61 136 165 57
4 65 57 165 68
4 7 91 104 6
4 106 108 3 4
4 166 137 108 106
4 139 138 137 166
4 140 139 166 107
4 107 166 106 105
4 103 141 140 107
4 159 142 141 103
4 143 117 116 167
4 159 143 167 142
4 167 116 115 142
CELL_TYPES 140
9
9
9
9
9
9
9
9
9
9
9
9
9
9
9
9
9
9
9
9
9
9
9
9
9
9
9
9
9
9
9
9
9
9
9
9
9
9
9
9
9
9
9
9
9
9
9
9
9
9
9
9
9
9
9
9
9
9
9
9
9
9
9
9
9
9
9
9
9
9
9
9
9
9
9
9
9
9
9
9
9
9
9
9
9
9
9
9
9
9
9
9
9
9
9
9
9
9
9
9
9
9
9
9
9
9
9
9
9
9
9
9
9
9
9
9
9
9
9
9
9
9
9
9
9
9
9
9
9
9
9
9
9
9
9
9
9
9
9
9
POINT_DATA 168
SCALARS fixed int
LOOKUP_TABLE default
1
1
1
1
1
1
1
1
1
1
1
1
1
1
1
1
1
1
1
1
1
1
1
1
1
1
1
1
1
1
1
1
1
1
1
1
1
1
1
1
1
1
1
1
1
1
1
1
1
1
1
1
1
1
1
1
0
0
0
0
0
0
0
0
0
0
0
0
0
0
0
0
0
0
0
0
0
0
0
0
0
0
0
0
0
0
0
0
0
0
0
0
0
0
0
0
0
0
0
0
0
0
0
0
0
0
0
0
0
0
0
0
0
0
0
0
0
0
0
0
0
0
0
0
0
0
0
0
0
0
0
0
0
0
0
0
0
0
0
0
0
0
0
0
0
0
0
0
0
0
0
0
0
0
0
0
0
0
0
0
0
0
0
0
0
0
0
0
