# vtk DataFile Version 2.0
Mesquite Mesh original_mesh .
ASCII
DATASET UNSTRUCTURED_GRID
POINTS 36 float
5 -5 5
5 5 5
5 -3 5
5 -1 5
5 1 5
5 3 5
-5 5 5
3 5 5
1 5 5
-1 5 5
-3 5 5
-5 -5 5
-5 3 5
-5 1 5
-5 -1 5
-5 -3 5
-3 -5 5
-1 -5 5
1 -5 5
3 -5 5
3.32066 -3.06546 5
0.175753 -2.77653 5
-1.78444 -2.36618 5
-2.3634 -4.55263 5
3.23819 -0.776713 5
0.368452 -1.35471 5
-0.708155 -1.47801 5
-3.26785 0.363083 5
2.45998 1.37889 5
0.203788 0.181657 5
-1.48862 2.4422 5
-3.35956 1.85184 5
2.6002 1.73347 5
1.44112 2.67611 5
-0.544777 3.33525 5
-2.34095 4.5292 5
CELLS 25 125
4 0 2 20 19 
4 2 3 24 20 
4 3 4 28 24 
4 4 5 32 28 
4 5 1 7 32 
4 19 20 21 18 
4 20 24 25 21 
4 24 28 29 25 
4 28 32 33 29 
4 32 7 8 33 
4 18 21 22 17 
4 21 25 26 22 
4 25 29 30 26 
4 29 33 34 30 
4 33 8 9 34 
4 17 22 23 16 
4 22 26 27 23 
4 26 30 31 27 
4 30 34 35 31 
4 34 9 10 35 
4 16 23 15 11 
4 23 27 14 15 
4 27 31 13 14 
4 31 35 12 13 
4 35 10 6 12 
CELL_TYPES 25
9
9
9
9
9
9
9
9
9
9
9
9
9
9
9
9
9
9
9
9
9
9
9
9
9
POINT_DATA 36
SCALARS fixed float
LOOKUP_TABLE default
1
1
1
1
1
1
1
1
1
1
1
1
1
1
1
1
1
1
1
1
0
0
0
0
0
0
0
0
0
0
0
0
0
0
0
0
