# vtk DataFile Version 3.0
vtk output
ASCII
DATASET UNSTRUCTURED_GRID
POINTS 216 float
0 0 0 0 0 1 0 0 2 
0 0 3 0 0 4 0 0 5 
0 1 0 0 1 1 0 1 2 
0 1 3 0 1 4 0 1 5 
0 2 0 0 2 1 0 2 2 
0 2 3 0 2 4 0 2 5 
0 3 0 0 3 1 0 3 2 
0 3 3 0 3 4 0 3 5 
0 4 0 0 4 1 0 4 2 
0 4 3 0 4 4 0 4 5 
0 5 0 0 5 1 0 5 2 
0 5 3 0 5 4 0 5 5 
1 0 0 1 0 1 1 0 2 
1 0 3 1 0 4 1 0 5 
1 1 0 1 1 1 1 1 2 
1 1 3 1 1 4 1 1 5 
1 2 0 1 2 1 1 2 2 
1 2 3 1 2 4 1 2 5 
1 3 0 1 3 1 1 3 2 
1 3 3 1 3 4 1 3 5 
1 4 0 1 4 1 1 4 2 
1 4 3 1 4 4 1 4 5 
1 5 0 1 5 1 1 5 2 
1 5 3 1 5 4 1 5 5 
2 0 0 2 0 1 2 0 2 
2 0 3 2 0 4 2 0 5 
2 1 0 2 1 1 2 1 2 
2 1 3 2 1 4 2 1 5 
2 2 0 2 2 1 2 2 2 
2 2 3 2 2 4 2 2 5 
2 3 0 2 3 1 2 3 2 
2 3 3 2 3 4 2 3 5 
2 4 0 2 4 1 2 4 2 
2 4 3 2 4 4 2 4 5 
2 5 0 2 5 1 2 5 2 
2 5 3 2 5 4 2 5 5 
3 0 0 3 0 1 3 0 2 
3 0 3 3 0 4 3 0 5 
3 1 0 3 1 1 3 1 2 
3 1 3 3 1 4 3 1 5 
3 2 0 3 2 1 3 2 2 
3 2 3 3 2 4 3 2 5 
3 3 0 3 3 1 3 3 2 
3 3 3 3 3 4 3 3 5 
3 4 0 3 4 1 3 4 2 
3 4 3 3 4 4 3 4 5 
3 5 0 3 5 1 3 5 2 
3 5 3 3 5 4 3 5 5 
4 0 0 4 0 1 4 0 2 
4 0 3 4 0 4 4 0 5 
4 1 0 4 1 1 4 1 2 
4 1 3 4 1 4 4 1 5 
4 2 0 4 2 1 4 2 2 
4 2 3 4 2 4 4 2 5 
4 3 0 4 3 1 4 3 2 
4 3 3 4 3 4 4 3 5 
4 4 0 4 4 1 4 4 2 
4 4 3 4 4 4 4 4 5 
4 5 0 4 5 1 4 5 2 
4 5 3 4 5 4 4 5 5 
5 0 0 5 0 1 5 0 2 
5 0 3 5 0 4 5 0 5 
5 1 0 5 1 1 5 1 2 
5 1 3 5 1 4 5 1 5 
5 2 0 5 2 1 5 2 2 
5 2 3 5 2 4 5 2 5 
5 3 0 5 3 1 5 3 2 
5 3 3 5 3 4 5 3 5 
5 4 0 5 4 1 5 4 2 
5 4 3 5 4 4 5 4 5 
5 5 0 5 5 1 5 5 2 
5 5 3 5 5 4 5 5 5 

CELLS 275 1875
8 0 36 42 6 1 37 43 7 
8 1 37 43 7 2 38 44 8 
8 2 38 44 8 3 39 45 9 
8 3 39 45 9 4 40 46 10 
8 4 40 46 10 5 41 47 11 
8 6 42 48 12 7 43 49 13 
8 7 43 49 13 8 44 50 14 
8 8 44 50 14 9 45 51 15 
8 9 45 51 15 10 46 52 16 
8 10 46 52 16 11 47 53 17 
8 12 48 54 18 13 49 55 19 
8 13 49 55 19 14 50 56 20 
8 14 50 56 20 15 51 57 21 
8 15 51 57 21 16 52 58 22 
8 16 52 58 22 17 53 59 23 
8 18 54 60 24 19 55 61 25 
8 19 55 61 25 20 56 62 26 
8 20 56 62 26 21 57 63 27 
8 21 57 63 27 22 58 64 28 
8 22 58 64 28 23 59 65 29 
8 24 60 66 30 25 61 67 31 
8 25 61 67 31 26 62 68 32 
8 26 62 68 32 27 63 69 33 
8 27 63 69 33 28 64 70 34 
8 28 64 70 34 29 65 71 35 
8 36 72 78 42 37 73 79 43 
8 37 73 79 43 38 74 80 44 
8 38 74 80 44 39 75 81 45 
8 39 75 81 45 40 76 82 46 
8 40 76 82 46 41 77 83 47 
8 42 78 84 48 43 79 85 49 
8 43 79 85 49 44 80 86 50 
8 44 80 86 50 45 81 87 51 
8 45 81 87 51 46 82 88 52 
8 46 82 88 52 47 83 89 53 
8 48 84 90 54 49 85 91 55 
8 49 85 91 55 50 86 92 56 
8 50 86 92 56 51 87 93 57 
8 51 87 93 57 52 88 94 58 
8 52 88 94 58 53 89 95 59 
8 54 90 96 60 55 91 97 61 
8 55 91 97 61 56 92 98 62 
8 56 92 98 62 57 93 99 63 
8 57 93 99 63 58 94 100 64 
8 58 94 100 64 59 95 101 65 
8 60 96 102 66 61 97 103 67 
8 61 97 103 67 62 98 104 68 
8 62 98 104 68 63 99 105 69 
8 63 99 105 69 64 100 106 70 
8 64 100 106 70 65 101 107 71 
8 72 108 114 78 73 109 115 79 
8 73 109 115 79 74 110 116 80 
8 74 110 116 80 75 111 117 81 
8 75 111 117 81 76 112 118 82 
8 76 112 118 82 77 113 119 83 
8 78 114 120 84 79 115 121 85 
8 79 115 121 85 80 116 122 86 
8 80 116 122 86 81 117 123 87 
8 81 117 123 87 82 118 124 88 
8 82 118 124 88 83 119 125 89 
8 84 120 126 90 85 121 127 91 
8 85 121 127 91 86 122 128 92 
8 86 122 128 92 87 123 129 93 
8 87 123 129 93 88 124 130 94 
8 88 124 130 94 89 125 131 95 
8 90 126 132 96 91 127 133 97 
8 91 127 133 97 92 128 134 98 
8 92 128 134 98 93 129 135 99 
8 93 129 135 99 94 130 136 100 
8 94 130 136 100 95 131 137 101 
8 96 132 138 102 97 133 139 103 
8 97 133 139 103 98 134 140 104 
8 98 134 140 104 99 135 141 105 
8 99 135 141 105 100 136 142 106 
8 100 136 142 106 101 137 143 107 
8 108 144 150 114 109 145 151 115 
8 109 145 151 115 110 146 152 116 
8 110 146 152 116 111 147 153 117 
8 111 147 153 117 112 148 154 118 
8 112 148 154 118 113 149 155 119 
8 114 150 156 120 115 151 157 121 
8 115 151 157 121 116 152 158 122 
8 116 152 158 122 117 153 159 123 
8 117 153 159 123 118 154 160 124 
8 118 154 160 124 119 155 161 125 
8 120 156 162 126 121 157 163 127 
8 121 157 163 127 122 158 164 128 
8 122 158 164 128 123 159 165 129 
8 123 159 165 129 124 160 166 130 
8 124 160 166 130 125 161 167 131 
8 126 162 168 132 127 163 169 133 
8 127 163 169 133 128 164 170 134 
8 128 164 170 134 129 165 171 135 
8 129 165 171 135 130 166 172 136 
8 130 166 172 136 131 167 173 137 
8 132 168 174 138 133 169 175 139 
8 133 169 175 139 134 170 176 140 
8 134 170 176 140 135 171 177 141 
8 135 171 177 141 136 172 178 142 
8 136 172 178 142 137 173 179 143 
8 144 180 186 150 145 181 187 151 
8 145 181 187 151 146 182 188 152 
8 146 182 188 152 147 183 189 153 
8 147 183 189 153 148 184 190 154 
8 148 184 190 154 149 185 191 155 
8 150 186 192 156 151 187 193 157 
8 151 187 193 157 152 188 194 158 
8 152 188 194 158 153 189 195 159 
8 153 189 195 159 154 190 196 160 
8 154 190 196 160 155 191 197 161 
8 156 192 198 162 157 193 199 163 
8 157 193 199 163 158 194 200 164 
8 158 194 200 164 159 195 201 165 
8 159 195 201 165 160 196 202 166 
8 160 196 202 166 161 197 203 167 
8 162 198 204 168 163 199 205 169 
8 163 199 205 169 164 200 206 170 
8 164 200 206 170 165 201 207 171 
8 165 201 207 171 166 202 208 172 
8 166 202 208 172 167 203 209 173 
8 168 204 210 174 169 205 211 175 
8 169 205 211 175 170 206 212 176 
8 170 206 212 176 171 207 213 177 
8 171 207 213 177 172 208 214 178 
8 172 208 214 178 173 209 215 179 
4 0 1 7 6 
4 1 2 8 7 
4 2 3 9 8 
4 3 4 10 9 
4 4 5 11 10 
4 6 7 13 12 
4 7 8 14 13 
4 8 9 15 14 
4 9 10 16 15 
4 10 11 17 16 
4 12 13 19 18 
4 13 14 20 19 
4 14 15 21 20 
4 15 16 22 21 
4 16 17 23 22 
4 18 19 25 24 
4 19 20 26 25 
4 20 21 27 26 
4 21 22 28 27 
4 22 23 29 28 
4 24 25 31 30 
4 25 26 32 31 
4 26 27 33 32 
4 27 28 34 33 
4 28 29 35 34 
4 180 181 187 186 
4 181 182 188 187 
4 182 183 189 188 
4 183 184 190 189 
4 184 185 191 190 
4 186 187 193 192 
4 187 188 194 193 
4 188 189 195 194 
4 189 190 196 195 
4 190 191 197 196 
4 192 193 199 198 
4 193 194 200 199 
4 194 195 201 200 
4 195 196 202 201 
4 196 197 203 202 
4 198 199 205 204 
4 199 200 206 205 
4 200 201 207 206 
4 201 202 208 207 
4 202 203 209 208 
4 204 205 211 210 
4 205 206 212 211 
4 206 207 213 212 
4 207 208 214 213 
4 208 209 215 214 
4 0 1 37 36 
4 1 2 38 37 
4 2 3 39 38 
4 3 4 40 39 
4 4 5 41 40 
4 36 37 73 72 
4 37 38 74 73 
4 38 39 75 74 
4 39 40 76 75 
4 40 41 77 76 
4 72 73 109 108 
4 73 74 110 109 
4 74 75 111 110 
4 75 76 112 111 
4 76 77 113 112 
4 108 109 145 144 
4 109 110 146 145 
4 110 111 147 146 
4 111 112 148 147 
4 112 113 149 148 
4 144 145 181 180 
4 145 146 182 181 
4 146 147 183 182 
4 147 148 184 183 
4 148 149 185 184 
4 30 31 67 66 
4 31 32 68 67 
4 32 33 69 68 
4 33 34 70 69 
4 34 35 71 70 
4 66 67 103 102 
4 67 68 104 103 
4 68 69 105 104 
4 69 70 106 105 
4 70 71 107 106 
4 102 103 139 138 
4 103 104 140 139 
4 104 105 141 140 
4 105 106 142 141 
4 106 107 143 142 
4 138 139 175 174 
4 139 140 176 175 
4 140 141 177 176 
4 141 142 178 177 
4 142 143 179 178 
4 174 175 211 210 
4 175 176 212 211 
4 176 177 213 212 
4 177 178 214 213 
4 178 179 215 214 
4 0 36 42 6 
4 6 42 48 12 
4 12 48 54 18 
4 18 54 60 24 
4 24 60 66 30 
4 36 72 78 42 
4 42 78 84 48 
4 48 84 90 54 
4 54 90 96 60 
4 60 96 102 66 
4 72 108 114 78 
4 78 114 120 84 
4 84 120 126 90 
4 90 126 132 96 
4 96 132 138 102 
4 108 144 150 114 
4 114 150 156 120 
4 120 156 162 126 
4 126 162 168 132 
4 132 168 174 138 
4 144 180 186 150 
4 150 186 192 156 
4 156 192 198 162 
4 162 198 204 168 
4 168 204 210 174 
4 5 41 47 11 
4 11 47 53 17 
4 17 53 59 23 
4 23 59 65 29 
4 29 65 71 35 
4 41 77 83 47 
4 47 83 89 53 
4 53 89 95 59 
4 59 95 101 65 
4 65 101 107 71 
4 77 113 119 83 
4 83 119 125 89 
4 89 125 131 95 
4 95 131 137 101 
4 101 137 143 107 
4 113 149 155 119 
4 119 155 161 125 
4 125 161 167 131 
4 131 167 173 137 
4 137 173 179 143 
4 149 185 191 155 
4 155 191 197 161 
4 161 197 203 167 
4 167 203 209 173 
4 173 209 215 179 

CELL_TYPES 275
12
12
12
12
12
12
12
12
12
12
12
12
12
12
12
12
12
12
12
12
12
12
12
12
12
12
12
12
12
12
12
12
12
12
12
12
12
12
12
12
12
12
12
12
12
12
12
12
12
12
12
12
12
12
12
12
12
12
12
12
12
12
12
12
12
12
12
12
12
12
12
12
12
12
12
12
12
12
12
12
12
12
12
12
12
12
12
12
12
12
12
12
12
12
12
12
12
12
12
12
12
12
12
12
12
12
12
12
12
12
12
12
12
12
12
12
12
12
12
12
12
12
12
12
12
9
9
9
9
9
9
9
9
9
9
9
9
9
9
9
9
9
9
9
9
9
9
9
9
9
9
9
9
9
9
9
9
9
9
9
9
9
9
9
9
9
9
9
9
9
9
9
9
9
9
9
9
9
9
9
9
9
9
9
9
9
9
9
9
9
9
9
9
9
9
9
9
9
9
9
9
9
9
9
9
9
9
9
9
9
9
9
9
9
9
9
9
9
9
9
9
9
9
9
9
9
9
9
9
9
9
9
9
9
9
9
9
9
9
9
9
9
9
9
9
9
9
9
9
9
9
9
9
9
9
9
9
9
9
9
9
9
9
9
9
9
9
9
9
9
9
9
9
9
9

CELL_DATA 275
SCALARS MaterialID int
LOOKUP_TABLE default
0 0 20 20 0 0 20 20 20 
0 20 0 20 0 20 20 0 20 
20 20 0 0 20 20 20 20 0 
30 20 20 20 20 40 0 20 0 
20 20 30 0 0 0 0 30 30 
0 20 20 0 20 20 20 30 0 
20 0 20 30 20 20 20 0 20 
0 20 20 30 30 20 40 0 20 
30 0 0 20 20 30 20 20 0 
0 30 20 20 0 0 0 20 20 
20 0 20 20 20 20 20 30 20 
20 20 20 20 20 20 20 0 0 
20 30 30 20 0 30 30 30 30 
30 20 30 40 30 20 30 30 1 
1 1 1 1 1 1 1 1 1 
1 1 1 1 1 1 1 1 1 
1 1 1 1 1 1 2 2 2 
2 2 2 2 2 2 2 2 2 
2 2 2 2 2 2 2 2 2 
2 2 2 2 3 3 3 3 3 
3 3 3 3 3 3 3 3 3 
3 3 3 3 3 3 3 3 3 
3 3 4 4 4 4 4 4 4 
4 4 4 4 4 4 4 4 4 
4 4 4 4 4 4 4 4 4 
5 5 5 5 5 5 5 5 5 
5 5 5 5 5 5 5 5 5 
5 5 5 5 5 5 5 6 6 
6 6 6 6 6 6 6 6 6 
6 6 6 6 6 6 6 6 6 
6 6 6 6 6 
