# vtk DataFile Version 5.1
vtk output
ASCII
DATASET UNSTRUCTURED_GRID
POINTS 125 double
0 0 0 1 0 0 0 1 0 
1 1 0 0 0 1 1 0 1 
0 1 1 1 1 1 0.5 0 0 
0 0.5 0 0 0 0.5 1 0.5 0 
1 0 0.5 0.5 1 0 0 1 0.5 
1 1 0.5 0.5 0 1 0 0.5 1 
1 0.5 1 0.5 1 1 0.5 0 0.5 
0.5 0.5 0 0 0.5 0.5 1 0.5 0.5 
0.5 1 0.5 0.5 0.5 1 0.5 0.5 0.5 
0.25 0 0 0.75 0 0 0 0.25 0 
0 0.75 0 0 0 0.25 0 0 0.75 
1 0.25 0 1 0.75 0 1 0 0.25 
1 0 0.75 0.25 1 0 0.75 1 0 
0 1 0.25 0 1 0.75 1 1 0.25 
1 1 0.75 0.25 0 1 0.75 0 1 
0 0.25 1 0 0.75 1 1 0.25 1 
1 0.75 1 0.25 1 1 0.75 1 1 
0.25 0 0.5 0.75 0 0.5 0.5 0 0.25 
0.5 0 0.75 0.5 0.25 0 0.5 0.75 0 
0.25 0.5 0 0.75 0.5 0 0 0.5 0.25 
0 0.5 0.75 0 0.25 0.5 0 0.75 0.5 
1 0.5 0.25 1 0.5 0.75 1 0.25 0.5 
1 0.75 0.5 0.25 1 0.5 0.75 1 0.5 
0.5 1 0.25 0.5 1 0.75 0.5 0.25 1 
0.5 0.75 1 0.25 0.5 1 0.75 0.5 1 
0.5 0.5 0.75 0.5 0.5 0.25 0.75 0.5 0.5 
0.25 0.5 0.5 0.5 0.75 0.5 0.5 0.25 0.5 
0.25 0 0.25 0.25 0 0.75 0.75 0 0.25 
0.75 0 0.75 0.25 0.25 0 0.75 0.25 0 
0.25 0.75 0 0.75 0.75 0 0 0.25 0.25 
0 0.75 0.25 0 0.25 0.75 0 0.75 0.75 
1 0.25 0.25 1 0.75 0.25 1 0.25 0.75 
1 0.75 0.75 0.25 1 0.25 0.25 1 0.75 
0.75 1 0.25 0.75 1 0.75 0.25 0.25 1 
0.75 0.25 1 0.25 0.75 1 0.75 0.75 1 
0.75 0.75 0.5 0.25 0.75 0.5 0.75 0.25 0.5 
0.25 0.25 0.5 0.75 0.5 0.75 0.75 0.5 0.25 
0.25 0.5 0.75 0.25 0.5 0.25 0.5 0.75 0.75 
0.5 0.25 0.75 0.5 0.75 0.25 0.5 0.25 0.25 
0.25 0.25 0.25 0.75 0.25 0.25 0.25 0.75 0.25 
0.75 0.75 0.25 0.25 0.25 0.75 0.75 0.25 0.75 
0.25 0.75 0.75 0.75 0.75 0.75 
METADATA
INFORMATION 0

CELLS 81 576
OFFSETS vtktypeint64
0 8 16 24 32 40 48 56 64 
72 80 88 96 104 112 120 128 136 
144 152 160 168 176 184 192 200 208 
216 224 232 240 248 256 264 272 280 
288 296 304 312 320 328 336 344 352 
360 368 376 384 392 400 408 416 424 
432 440 448 456 464 472 480 488 496 
504 512 516 520 524 528 532 536 540 
544 548 552 556 560 564 568 572 576 

CONNECTIVITY vtktypeint64
0 27 85 29 31 81 117 89 27 
8 55 85 81 53 116 117 29 85 
57 9 89 117 112 59 85 55 21 
57 117 116 76 112 31 81 117 89 
10 51 108 61 81 53 116 117 51 
20 80 108 89 117 112 59 61 108 
78 22 117 116 76 112 108 80 26 
78 8 28 86 55 53 83 118 116 
28 1 33 86 83 35 93 118 55 
86 58 21 116 118 110 76 86 33 
11 58 118 93 63 110 53 83 118 
116 20 52 107 80 83 35 93 118 
52 12 65 107 116 118 110 76 80 
107 77 26 118 93 63 110 107 65 
23 77 9 57 87 30 59 112 119 
90 57 21 56 87 112 76 115 119 
30 87 37 2 90 119 97 39 87 
56 13 37 119 115 69 97 59 112 
119 90 22 78 106 62 112 76 115 
119 78 26 79 106 90 119 97 39 
62 106 67 14 119 115 69 97 106 
79 24 67 21 58 88 56 76 110 
120 115 58 11 34 88 110 63 94 
120 56 88 38 13 115 120 99 69 
88 34 3 38 120 94 41 99 76 
110 120 115 26 77 105 79 110 63 
94 120 77 23 66 105 115 120 99 
69 79 105 68 24 120 94 41 99 
105 66 15 68 10 51 108 61 32 
82 121 91 51 20 80 108 82 54 
114 121 61 108 78 22 91 121 111 
60 108 80 26 78 121 114 75 111 
32 82 121 91 4 43 101 45 82 
54 114 121 43 16 71 101 91 121 
111 60 45 101 73 17 121 114 75 
111 101 71 25 73 20 52 107 80 
54 84 122 114 52 12 65 107 84 
36 95 122 80 107 77 26 114 122 
109 75 107 65 23 77 122 95 64 
109 54 84 122 114 16 44 102 71 
84 36 95 122 44 5 47 102 114 
122 109 75 71 102 74 25 122 95 
64 109 102 47 18 74 22 78 106 
62 60 111 123 92 78 26 79 106 
111 75 113 123 62 106 67 14 92 
123 98 40 106 79 24 67 123 113 
70 98 60 111 123 92 17 73 103 
46 111 75 113 123 73 25 72 103 
92 123 98 40 46 103 49 6 123 
113 70 98 103 72 19 49 26 77 
105 79 75 109 124 113 77 23 66 
105 109 64 96 124 79 105 68 24 
113 124 100 70 105 66 15 68 124 
96 42 100 75 109 124 113 25 74 
104 72 109 64 96 124 74 18 48 
104 113 124 100 70 72 104 50 19 
124 96 42 100 104 48 7 50 0 
31 89 29 30 90 39 2 32 4 
45 91 92 46 6 40 29 89 59 
9 9 59 90 30 31 10 61 89 
10 32 91 61 90 62 14 39 62 
92 40 14 91 45 17 60 60 17 
46 92 89 61 22 59 59 22 62 
90 61 91 60 22 22 60 92 62 

CELL_TYPES 80
12
12
12
12
12
12
12
12
12
12
12
12
12
12
12
12
12
12
12
12
12
12
12
12
12
12
12
12
12
12
12
12
12
12
12
12
12
12
12
12
12
12
12
12
12
12
12
12
12
12
12
12
12
12
12
12
12
12
12
12
12
12
12
12
9
9
9
9
9
9
9
9
9
9
9
9
9
9
9
9

CELL_DATA 80
SCALARS Boundary%20ID double 
LOOKUP_TABLE default
0 0 0 0 0 0 0 0 0 
0 0 0 0 0 0 0 0 0 
0 0 0 0 0 0 0 0 0 
0 0 0 0 0 0 0 0 0 
0 0 0 0 0 0 0 0 0 
0 0 0 0 0 0 0 0 0 
0 0 0 0 0 0 0 0 0 
0 1 1 1 1 1 1 1 1 
1 1 1 1 1 1 1 1 
METADATA
INFORMATION 0

FIELD FieldData 1
MaterialID 1 80 int
0 0 0 0 0 0 0 0 0 
0 0 0 0 0 0 0 0 0 
0 0 0 0 0 0 0 0 0 
0 0 0 0 0 0 0 0 0 
0 0 0 0 0 0 0 0 0 
0 0 0 0 0 0 0 0 0 
0 0 0 0 0 0 0 0 0 
0 0 0 0 0 0 0 0 0 
0 0 0 0 0 0 0 0 
METADATA
INFORMATION 0
