# vtk DataFile Version 5.1
vtk output
ASCII
DATASET UNSTRUCTURED_GRID
POINTS 9 double
0 0 0 0.5 0 0 1 0 0 
0 0.5 0 0.5 0.5 0 1 0.5 0 
0 1 0 0.5 1 0 1 1 0 

CELLS 5 16
OFFSETS vtktypeint64
0 4 8 12 16 
CONNECTIVITY vtktypeint64
0 1 4 3 1 2 5 4 3 
4 7 6 4 5 8 7 
CELL_TYPES 4
9
9
9
9

CELL_DATA 4
SCALARS center_x double
LOOKUP_TABLE default
0.25 0.75 0.25 0.75 
FIELD FieldData 1
center_xyz 3 4 double
0.25 0.25 0 0.75 0.25 0 0.25 0.75 0 
0.75 0.75 0 
POINT_DATA 9
SCALARS x double
LOOKUP_TABLE default
0 0.5 1 0 0.5 1 0 0.5 1 

FIELD FieldData 1
xyz 3 9 double
0 0 0 0.5 0 0 1 0 0 
0 0.5 0 0.5 0.5 0 1 0.5 0 
0 1 0 0.5 1 0 1 1 0
