# vtk DataFile Version 5.1
vtk output
ASCII
DATASET UNSTRUCTURED_GRID
POINTS 10 double
0 0 0 0.25 0 0 0.5 0 0 
0.75 0 0 1 0 0 0 1 0 
0.25 1 0 0.5 1 0 0.75 1 0 
1 1 0 
CELLS 9 24
OFFSETS vtktypeint64
0 3 6 9 12 15 18 21 24 

CONNECTIVITY vtktypeint64
0 5 6 0 6 1 1 6 7 
1 7 2 2 7 8 2 8 3 
3 8 9 3 9 4 
CELL_TYPES 8
5
5
5
5
5
5
5
5

CELL_DATA 8
SCALARS center_x double
LOOKUP_TABLE default
0.083333333333 0.16666666667 0.33333333333 0.41666666667 0.58333333333 0.66666666667 0.83333333333 0.91666666667 
FIELD FieldData 1
center_xyz 3 8 double
0.083333333333 0.66666666667 0 0.16666666667 0.33333333333 0 0.33333333333 0.66666666667 0 
0.41666666667 0.33333333333 0 0.58333333333 0.66666666667 0 0.66666666667 0.33333333333 0 
0.83333333333 0.66666666667 0 0.91666666667 0.33333333333 0 
POINT_DATA 10
SCALARS x double
LOOKUP_TABLE default
0 0.25 0.5 0.75 1 0 0.25 0.5 0.75 
1 
FIELD FieldData 1
xyz 3 10 double
0 0 0 0.25 0 0 0.5 0 0 
0.75 0 0 1 0 0 0 1 0 
0.25 1 0 0.5 1 0 0.75 1 0 
1 1 0 
