# vtk DataFile Version 5.1
vtk output
ASCII
DATASET UNSTRUCTURED_GRID
POINTS 10 double
0 0 0 0.11111111111 0 0 0.22222222222 0 0 
0.33333333333 0 0 0.44444444444 0 0 0.55555555556 0 0 
0.66666666667 0 0 0.77777777778 0 0 0.88888888889 0 0 
1 0 0 
CELLS 10 18
OFFSETS vtktypeint64
0 2 4 6 8 10 12 14 16 
18 
CONNECTIVITY vtktypeint64
0 1 1 2 2 3 3 4 4 
5 5 6 6 7 7 8 8 9 

CELL_TYPES 9
3
3
3
3
3
3
3
3
3

CELL_DATA 9
SCALARS center_x double
LOOKUP_TABLE default
0.055555555556 0.16666666667 0.27777777778 0.38888888889 0.5 0.61111111111 0.72222222222 0.83333333333 0.94444444444 

FIELD FieldData 1
center_xyz 3 9 double
0.055555555556 0 0 0.16666666667 0 0 0.27777777778 0 0 
0.38888888889 0 0 0.5 0 0 0.61111111111 0 0 
0.72222222222 0 0 0.83333333333 0 0 0.94444444444 0 0 

POINT_DATA 10
SCALARS x double
LOOKUP_TABLE default
0 0.11111111111 0.22222222222 0.33333333333 0.44444444444 0.55555555556 0.66666666667 0.77777777778 0.88888888889 
1 
FIELD FieldData 1
xyz 3 10 double
0 0 0 0.11111111111 0 0 0.22222222222 0 0 
0.33333333333 0 0 0.44444444444 0 0 0.55555555556 0 0 
0.66666666667 0 0 0.77777777778 0 0 0.88888888889 0 0 
1 0 0 
