# vtk DataFile Version 5.1
vtk output
ASCII
DATASET UNSTRUCTURED_GRID
POINTS 27 double
0 0 0 0.5 0 0 1 0 0 
0 0.5 0 0.5 0.5 0 1 0.5 0 
0 1 0 0.5 1 0 1 1 0 
0 0 0.5 0.5 0 0.5 1 0 0.5 
0 0.5 0.5 0.5 0.5 0.5 1 0.5 0.5 
0 1 0.5 0.5 1 0.5 1 1 0.5 
0 0 1 0.5 0 1 1 0 1 
0 0.5 1 0.5 0.5 1 1 0.5 1 
0 1 1 0.5 1 1 1 1 1 

CELLS 9 64
OFFSETS vtktypeint64
0 8 16 24 32 40 48 56 64 

CONNECTIVITY vtktypeint64
0 1 4 3 9 10 13 12 1 
2 5 4 10 11 14 13 3 4 
7 6 12 13 16 15 4 5 8 
7 13 14 17 16 9 10 13 12 
18 19 22 21 10 11 14 13 19 
20 23 22 12 13 16 15 21 22 
25 24 13 14 17 16 22 23 26 
25 
CELL_TYPES 8
12
12
12
12
12
12
12
12

CELL_DATA 8
SCALARS center_x double
LOOKUP_TABLE default
0.25 0.75 0.25 0.75 0.25 0.75 0.25 0.75 
FIELD FieldData 1
center_xyz 3 8 double
0.25 0.25 0.25 0.75 0.25 0.25 0.25 0.75 0.25 
0.75 0.75 0.25 0.25 0.25 0.75 0.75 0.25 0.75 
0.25 0.75 0.75 0.75 0.75 0.75 
POINT_DATA 27
SCALARS x double
LOOKUP_TABLE default
0 0.5 1 0 0.5 1 0 0.5 1 
0 0.5 1 0 0.5 1 0 0.5 1 
0 0.5 1 0 0.5 1 0 0.5 1 

FIELD FieldData 1
xyz 3 27 double
0 0 0 0.5 0 0 1 0 0 
0 0.5 0 0.5 0.5 0 1 0.5 0 
0 1 0 0.5 1 0 1 1 0 
0 0 0.5 0.5 0 0.5 1 0 0.5 
0 0.5 0.5 0.5 0.5 0.5 1 0.5 0.5 
0 1 0.5 0.5 1 0.5 1 1 0.5 
0 0 1 0.5 0 1 1 0 1 
0 0.5 1 0.5 0.5 1 1 0.5 1 
0 1 1 0.5 1 1 1 1 1
