# vtk DataFile Version 5.1
vtk output
ASCII
DATASET UNSTRUCTURED_GRID
POINTS 27 double
0 0 0 0.5 0 0 1 0 0 
0 0.5 0 0.5 0.5 0 1 0.5 0 
0 1 0 0.5 1 0 1 1 0 
0 0 0.5 0.5 0 0.5 1 0 0.5 
0 0.5 0.5 0.5 0.5 0.5 1 0.5 0.5 
0 1 0.5 0.5 1 0.5 1 1 0.5 
0 0 1 0.5 0 1 1 0 1 
0 0.5 1 0.5 0.5 1 1 0.5 1 
0 1 1 0.5 1 1 1 1 1 

CELLS 41 160
OFFSETS vtktypeint64
0 4 8 12 16 20 24 28 32 
36 40 44 48 52 56 60 64 68 
72 76 80 84 88 92 96 100 104 
108 112 116 120 124 128 132 136 140 
144 148 152 156 160 
CONNECTIVITY vtktypeint64
0 1 3 9 1 4 3 13 1 
9 10 13 3 9 13 12 1 3 
9 13 1 2 4 10 2 5 4 
14 2 10 11 14 4 10 14 13 
2 4 10 14 3 4 6 12 4 
7 6 16 4 12 13 16 6 12 
16 15 4 6 12 16 4 5 7 
13 5 8 7 17 5 13 14 17 
7 13 17 16 5 7 13 17 9 
10 12 18 10 13 12 22 10 18 
19 22 12 18 22 21 10 12 18 
22 10 11 13 19 11 14 13 23 
11 19 20 23 13 19 23 22 11 
13 19 23 12 13 15 21 13 16 
15 25 13 21 22 25 15 21 25 
24 13 15 21 25 13 14 16 22 
14 17 16 26 14 22 23 26 16 
22 26 25 14 16 22 26 
CELL_TYPES 40
10
10
10
10
10
10
10
10
10
10
10
10
10
10
10
10
10
10
10
10
10
10
10
10
10
10
10
10
10
10
10
10
10
10
10
10
10
10
10
10

CELL_DATA 40
SCALARS center_x double
LOOKUP_TABLE default
0.125 0.375 0.375 0.125 0.25 0.625 0.875 0.875 0.625 
0.75 0.125 0.375 0.375 0.125 0.25 0.625 0.875 0.875 
0.625 0.75 0.125 0.375 0.375 0.125 0.25 0.625 0.875 
0.875 0.625 0.75 0.125 0.375 0.375 0.125 0.25 0.625 
0.875 0.875 0.625 0.75 
FIELD FieldData 1
center_xyz 3 40 double
0.125 0.125 0.125 0.375 0.375 0.125 0.375 0.125 0.375 
0.125 0.375 0.375 0.25 0.25 0.25 0.625 0.125 0.125 
0.875 0.375 0.125 0.875 0.125 0.375 0.625 0.375 0.375 
0.75 0.25 0.25 0.125 0.625 0.125 0.375 0.875 0.125 
0.375 0.625 0.375 0.125 0.875 0.375 0.25 0.75 0.25 
0.625 0.625 0.125 0.875 0.875 0.125 0.875 0.625 0.375 
0.625 0.875 0.375 0.75 0.75 0.25 0.125 0.125 0.625 
0.375 0.375 0.625 0.375 0.125 0.875 0.125 0.375 0.875 
0.25 0.25 0.75 0.625 0.125 0.625 0.875 0.375 0.625 
0.875 0.125 0.875 0.625 0.375 0.875 0.75 0.25 0.75 
0.125 0.625 0.625 0.375 0.875 0.625 0.375 0.625 0.875 
0.125 0.875 0.875 0.25 0.75 0.75 0.625 0.625 0.625 
0.875 0.875 0.625 0.875 0.625 0.875 0.625 0.875 0.875 
0.75 0.75 0.75 
POINT_DATA 27
SCALARS x double
LOOKUP_TABLE default
0 0.5 1 0 0.5 1 0 0.5 1 
0 0.5 1 0 0.5 1 0 0.5 1 
0 0.5 1 0 0.5 1 0 0.5 1 

FIELD FieldData 1
xyz 3 27 double
0 0 0 0.5 0 0 1 0 0 
0 0.5 0 0.5 0.5 0 1 0.5 0 
0 1 0 0.5 1 0 1 1 0 
0 0 0.5 0.5 0 0.5 1 0 0.5 
0 0.5 0.5 0.5 0.5 0.5 1 0.5 0.5 
0 1 0.5 0.5 1 0.5 1 1 0.5 
0 0 1 0.5 0 1 1 0 1 
0 0.5 1 0.5 0.5 1 1 0.5 1 
0 1 1 0.5 1 1 1 1 1
