# vtk DataFile Version 5.1
vtk output
ASCII
DATASET UNSTRUCTURED_GRID
POINTS 25 double
0 0 0 1 0 0 0 1 0 
1 1 0 0.5 0 0 0 0.5 0 
1 0.5 0 0.5 1 0 0.5 0.5 0 
0.25 0 0 0.75 0 0 0 0.25 0 
0 0.75 0 1 0.25 0 1 0.75 0 
0.25 1 0 0.75 1 0 0.5 0.25 0 
0.5 0.75 0 0.25 0.5 0 0.75 0.5 0 
0.25 0.25 0 0.75 0.25 0 0.25 0.75 0 
0.75 0.75 0 
METADATA
INFORMATION 0

CELLS 21 72
OFFSETS vtktypeint64
0 4 8 12 16 20 24 28 32 
36 40 44 48 52 56 60 64 66 
68 70 72 
CONNECTIVITY vtktypeint64
0 9 21 11 9 4 17 21 11 
21 19 5 21 17 8 19 4 10 
22 17 10 1 13 22 17 22 20 
8 22 13 6 20 5 19 23 12 
19 8 18 23 12 23 15 2 23 
18 7 15 8 20 24 18 20 6 
14 24 18 24 16 7 24 14 3 
16 11 0 2 12 5 11 12 5 

CELL_TYPES 20
9
9
9
9
9
9
9
9
9
9
9
9
9
9
9
9
3
3
3
3

CELL_DATA 20
SCALARS Boundary%20ID double 
LOOKUP_TABLE default
0 0 0 0 0 0 0 0 0 
0 0 0 0 0 0 0 1 1 
1 1 
FIELD FieldData 2
MaterialID 1 20 int
0 0 0 0 0 0 0 0 0 
0 0 0 0 0 0 0 0 0 
0 0 
ManifoldID 1 20 int
-1 -1 -1 -1 -1 -1 -1 -1 -1 
-1 -1 -1 -1 -1 -1 -1 -1 -1 
-1 -1 
