
DEAL:3d::hyper_cube
DEAL:3d::Checksum: 1048577
<?xml version="1.0"?>
<VTKFile type="PUnstructuredGrid" version="0.1" byte_order="LittleEndian">
  <PUnstructuredGrid GhostLevel="0">
    <PPoints>
      <PDataArray type="Float32" Name="Position" NumberOfComponents="3" format="ascii"/>
    </PPoints>
    <PCellData Scalars="mpirank,treeid">
      <PDataArray type="Int32" Name="mpirank" format="ascii"/>
      <PDataArray type="Int32" Name="treeid" format="ascii"/>
    </PCellData>
    <PPointData>
    </PPointData>
    <Piece Source="1_0000.vtu"/>
  </PUnstructuredGrid>
</VTKFile>

<?xml version="1.0"?>
<VTKFile type="UnstructuredGrid" version="0.1" byte_order="LittleEndian">
  <UnstructuredGrid>
    <Piece NumberOfPoints="8" NumberOfCells="1">
      <Points>
        <DataArray type="Float32" Name="Position" NumberOfComponents="3" format="ascii">
            2.50000004e-02   2.50000004e-02   2.50000004e-02
            9.75000024e-01   2.50000004e-02   2.50000004e-02
            2.50000004e-02   9.75000024e-01   2.50000004e-02
            9.75000024e-01   9.75000024e-01   2.50000004e-02
            2.50000004e-02   2.50000004e-02   9.75000024e-01
            9.75000024e-01   2.50000004e-02   9.75000024e-01
            2.50000004e-02   9.75000024e-01   9.75000024e-01
            9.75000024e-01   9.75000024e-01   9.75000024e-01
        </DataArray>
      </Points>
      <Cells>
        <DataArray type="Int32" Name="connectivity" format="ascii">
          0 1 2 3 4 5 6 7
        </DataArray>
        <DataArray type="Int32" Name="offsets" format="ascii">
          8
        </DataArray>
        <DataArray type="UInt8" Name="types" format="ascii">
          11
        </DataArray>
      </Cells>
      <CellData Scalars="mpirank,treeid">
        <DataArray type="Int32" Name="mpirank" format="ascii">
          0
        </DataArray>
        <DataArray type="Int32" Name="treeid" format="ascii">
          0
        </DataArray>
      </CellData>
      <PointData>
      </PointData>
    </Piece>
  </UnstructuredGrid>
</VTKFile>

DEAL:3d::hyper_ball
DEAL:3d::Checksum: 7340033
<?xml version="1.0"?>
<VTKFile type="PUnstructuredGrid" version="0.1" byte_order="LittleEndian">
  <PUnstructuredGrid GhostLevel="0">
    <PPoints>
      <PDataArray type="Float32" Name="Position" NumberOfComponents="3" format="ascii"/>
    </PPoints>
    <PCellData Scalars="mpirank,treeid">
      <PDataArray type="Int32" Name="mpirank" format="ascii"/>
      <PDataArray type="Int32" Name="treeid" format="ascii"/>
    </PCellData>
    <PPointData>
    </PPointData>
    <Piece Source="2_0000.vtu"/>
  </PUnstructuredGrid>
</VTKFile>

<?xml version="1.0"?>
<VTKFile type="UnstructuredGrid" version="0.1" byte_order="LittleEndian">
  <UnstructuredGrid>
    <Piece NumberOfPoints="56" NumberOfCells="7">
      <Points>
        <DataArray type="Float32" Name="Position" NumberOfComponents="3" format="ascii">
           -1.61936891e+00  -1.61936891e+00  -1.70459890e+00
            1.61936891e+00  -1.61936891e+00  -1.70459890e+00
           -1.61936891e+00   1.61936891e+00  -1.70459890e+00
            1.61936891e+00   1.61936891e+00  -1.70459890e+00
           -6.28355205e-01  -6.28355205e-01  -6.61426485e-01
            6.28355205e-01  -6.28355205e-01  -6.61426485e-01
           -6.28355205e-01   6.28355205e-01  -6.61426485e-01
            6.28355205e-01   6.28355205e-01  -6.61426485e-01
            1.70459890e+00  -1.61936891e+00  -1.61936891e+00
            1.70459890e+00   1.61936891e+00  -1.61936891e+00
            6.61426485e-01  -6.28355205e-01  -6.28355205e-01
            6.61426485e-01   6.28355205e-01  -6.28355205e-01
            1.70459890e+00  -1.61936891e+00   1.61936891e+00
            1.70459890e+00   1.61936891e+00   1.61936891e+00
            6.61426485e-01  -6.28355205e-01   6.28355205e-01
            6.61426485e-01   6.28355205e-01   6.28355205e-01
           -1.70459890e+00  -1.61936891e+00  -1.61936891e+00
           -6.61426485e-01  -6.28355205e-01  -6.28355205e-01
           -1.70459890e+00   1.61936891e+00  -1.61936891e+00
           -6.61426485e-01   6.28355205e-01  -6.28355205e-01
           -1.70459890e+00  -1.61936891e+00   1.61936891e+00
           -6.61426485e-01  -6.28355205e-01   6.28355205e-01
           -1.70459890e+00   1.61936891e+00   1.61936891e+00
           -6.61426485e-01   6.28355205e-01   6.28355205e-01
           -1.61936891e+00  -1.70459890e+00  -1.61936891e+00
            1.61936891e+00  -1.70459890e+00  -1.61936891e+00
           -6.28355205e-01  -6.61426485e-01  -6.28355205e-01
            6.28355205e-01  -6.61426485e-01  -6.28355205e-01
           -1.61936891e+00  -1.70459890e+00   1.61936891e+00
            1.61936891e+00  -1.70459890e+00   1.61936891e+00
           -6.28355205e-01  -6.61426485e-01   6.28355205e-01
            6.28355205e-01  -6.61426485e-01   6.28355205e-01
           -1.61936891e+00   1.70459890e+00  -1.61936891e+00
           -6.28355205e-01   6.61426485e-01  -6.28355205e-01
            1.61936891e+00   1.70459890e+00  -1.61936891e+00
            6.28355205e-01   6.61426485e-01  -6.28355205e-01
           -1.61936891e+00   1.70459890e+00   1.61936891e+00
           -6.28355205e-01   6.61426485e-01   6.28355205e-01
            1.61936891e+00   1.70459890e+00   1.61936891e+00
            6.28355205e-01   6.61426485e-01   6.28355205e-01
           -6.02275848e-01  -6.02275848e-01  -6.02275848e-01
            6.02275848e-01  -6.02275848e-01  -6.02275848e-01
           -6.02275848e-01   6.02275848e-01  -6.02275848e-01
            6.02275848e-01   6.02275848e-01  -6.02275848e-01
           -6.02275848e-01  -6.02275848e-01   6.02275848e-01
            6.02275848e-01  -6.02275848e-01   6.02275848e-01
           -6.02275848e-01   6.02275848e-01   6.02275848e-01
            6.02275848e-01   6.02275848e-01   6.02275848e-01
           -1.61936891e+00  -1.61936891e+00   1.70459890e+00
            1.61936891e+00  -1.61936891e+00   1.70459890e+00
           -6.28355205e-01  -6.28355205e-01   6.61426485e-01
            6.28355205e-01  -6.28355205e-01   6.61426485e-01
           -1.61936891e+00   1.61936891e+00   1.70459890e+00
            1.61936891e+00   1.61936891e+00   1.70459890e+00
           -6.28355205e-01   6.28355205e-01   6.61426485e-01
            6.28355205e-01   6.28355205e-01   6.61426485e-01
        </DataArray>
      </Points>
      <Cells>
        <DataArray type="Int32" Name="connectivity" format="ascii">
          0 1 2 3 4 5 6 7
          8 9 10 11 12 13 14 15
          16 17 18 19 20 21 22 23
          24 25 26 27 28 29 30 31
          32 33 34 35 36 37 38 39
          40 41 42 43 44 45 46 47
          48 49 50 51 52 53 54 55
        </DataArray>
        <DataArray type="Int32" Name="offsets" format="ascii">
          8 16 24 32 40 48 56
        </DataArray>
        <DataArray type="UInt8" Name="types" format="ascii">
          11 11 11 11 11 11 11
        </DataArray>
      </Cells>
      <CellData Scalars="mpirank,treeid">
        <DataArray type="Int32" Name="mpirank" format="ascii">
          0 0 0 0 0 0 0
        </DataArray>
        <DataArray type="Int32" Name="treeid" format="ascii">
          0 1 2 3 4 5 6
        </DataArray>
      </CellData>
      <PointData>
      </PointData>
    </Piece>
  </UnstructuredGrid>
</VTKFile>

DEAL:3d::half_hyper_ball
DEAL:3d::Checksum: 6291457
<?xml version="1.0"?>
<VTKFile type="PUnstructuredGrid" version="0.1" byte_order="LittleEndian">
  <PUnstructuredGrid GhostLevel="0">
    <PPoints>
      <PDataArray type="Float32" Name="Position" NumberOfComponents="3" format="ascii"/>
    </PPoints>
    <PCellData Scalars="mpirank,treeid">
      <PDataArray type="Int32" Name="mpirank" format="ascii"/>
      <PDataArray type="Int32" Name="treeid" format="ascii"/>
    </PCellData>
    <PPointData>
    </PPointData>
    <Piece Source="3_0000.vtu"/>
  </PUnstructuredGrid>
</VTKFile>

<?xml version="1.0"?>
<VTKFile type="UnstructuredGrid" version="0.1" byte_order="LittleEndian">
  <UnstructuredGrid>
    <Piece NumberOfPoints="48" NumberOfCells="6">
      <Points>
        <DataArray type="Float32" Name="Position" NumberOfComponents="3" format="ascii">
            6.41400069e-02   1.96091986e+00  -2.06412625e+00
            6.41400069e-02  -1.96091986e+00  -2.06412625e+00
            2.50146031e+00   1.01769257e+00  -1.07125533e+00
            2.50146031e+00  -1.01769257e+00  -1.07125533e+00
            3.32878530e-02   8.53455186e-01  -8.98373842e-01
            3.32878530e-02  -8.53455186e-01  -8.98373842e-01
            1.29822624e+00   4.42932427e-01  -4.66244668e-01
            1.29822624e+00  -4.42932427e-01  -4.66244668e-01
            6.41400069e-02   2.06412625e+00  -1.96091986e+00
            3.32878530e-02   8.98373842e-01  -8.53455186e-01
            2.50146031e+00   1.07125533e+00  -1.01769257e+00
            1.29822624e+00   4.66244668e-01  -4.42932427e-01
            6.41400069e-02   2.06412625e+00   1.96091986e+00
            3.32878530e-02   8.98373842e-01   8.53455186e-01
            2.50146031e+00   1.07125533e+00   1.01769257e+00
            1.29822624e+00   4.66244668e-01   4.42932427e-01
            6.41400069e-02  -2.06412625e+00  -1.96091986e+00
            6.41400069e-02  -2.06412625e+00   1.96091986e+00
            2.50146031e+00  -1.07125533e+00  -1.01769257e+00
            2.50146031e+00  -1.07125533e+00   1.01769257e+00
            3.32878530e-02  -8.98373842e-01  -8.53455186e-01
            3.32878530e-02  -8.98373842e-01   8.53455186e-01
            1.29822624e+00  -4.66244668e-01  -4.42932427e-01
            1.29822624e+00  -4.66244668e-01   4.42932427e-01
            3.24759521e-02   8.24311376e-01  -8.24311376e-01
            3.24759521e-02  -8.24311376e-01  -8.24311376e-01
            1.26656210e+00   4.27807152e-01  -4.27807152e-01
            1.26656210e+00  -4.27807152e-01  -4.27807152e-01
            3.24759521e-02   8.24311376e-01   8.24311376e-01
            3.24759521e-02  -8.24311376e-01   8.24311376e-01
            1.26656210e+00   4.27807152e-01   4.27807152e-01
            1.26656210e+00  -4.27807152e-01   4.27807152e-01
            2.56560016e+00   9.92870808e-01  -9.92870808e-01
            1.33151400e+00   4.32129204e-01  -4.32129204e-01
            2.56560016e+00  -9.92870808e-01  -9.92870808e-01
            1.33151400e+00  -4.32129204e-01  -4.32129204e-01
            2.56560016e+00   9.92870808e-01   9.92870808e-01
            1.33151400e+00   4.32129204e-01   4.32129204e-01
            2.56560016e+00  -9.92870808e-01   9.92870808e-01
            1.33151400e+00  -4.32129204e-01   4.32129204e-01
            6.41400069e-02   1.96091986e+00   2.06412625e+00
            3.32878530e-02   8.53455186e-01   8.98373842e-01
            2.50146031e+00   1.01769257e+00   1.07125533e+00
            1.29822624e+00   4.42932427e-01   4.66244668e-01
            6.41400069e-02  -1.96091986e+00   2.06412625e+00
            3.32878530e-02  -8.53455186e-01   8.98373842e-01
            2.50146031e+00  -1.01769257e+00   1.07125533e+00
            1.29822624e+00  -4.42932427e-01   4.66244668e-01
        </DataArray>
      </Points>
      <Cells>
        <DataArray type="Int32" Name="connectivity" format="ascii">
          0 1 2 3 4 5 6 7
          8 9 10 11 12 13 14 15
          16 17 18 19 20 21 22 23
          24 25 26 27 28 29 30 31
          32 33 34 35 36 37 38 39
          40 41 42 43 44 45 46 47
        </DataArray>
        <DataArray type="Int32" Name="offsets" format="ascii">
          8 16 24 32 40 48
        </DataArray>
        <DataArray type="UInt8" Name="types" format="ascii">
          11 11 11 11 11 11
        </DataArray>
      </Cells>
      <CellData Scalars="mpirank,treeid">
        <DataArray type="Int32" Name="mpirank" format="ascii">
          0 0 0 0 0 0
        </DataArray>
        <DataArray type="Int32" Name="treeid" format="ascii">
          0 1 2 3 4 5
        </DataArray>
      </CellData>
      <PointData>
      </PointData>
    </Piece>
  </UnstructuredGrid>
</VTKFile>

