
DEAL:3d::Checksum: 2097153
<?xml version="1.0"?>
<VTKFile type="PUnstructuredGrid" version="0.1" byte_order="LittleEndian">
  <PUnstructuredGrid GhostLevel="0">
    <PPoints>
      <PDataArray type="Float32" Name="Position" NumberOfComponents="3" format="ascii"/>
    </PPoints>
    <PCellData Scalars="mpirank,treeid">
      <PDataArray type="Int32" Name="mpirank" format="ascii"/>
      <PDataArray type="Int32" Name="treeid" format="ascii"/>
    </PCellData>
    <PPointData>
    </PPointData>
    <Piece Source="1_0000.vtu"/>
  </PUnstructuredGrid>
</VTKFile>

<?xml version="1.0"?>
<VTKFile type="UnstructuredGrid" version="0.1" byte_order="LittleEndian">
  <UnstructuredGrid>
    <Piece NumberOfPoints="16" NumberOfCells="2">
      <Points>
        <DataArray type="Float32" Name="Position" NumberOfComponents="3" format="ascii">
            2.50000004e-02   2.50000004e-02   9.75000024e-01
            9.75000024e-01   2.50000004e-02   9.75000024e-01
            2.50000004e-02   2.50000004e-02   2.50000004e-02
            9.75000024e-01   2.50000004e-02   2.50000004e-02
            2.50000004e-02   9.75000024e-01   9.75000024e-01
            9.75000024e-01   9.75000024e-01   9.75000024e-01
            2.50000004e-02   9.75000024e-01   2.50000004e-02
            9.75000024e-01   9.75000024e-01   2.50000004e-02
           -2.50000004e-02   2.50000004e-02   9.75000024e-01
           -2.50000004e-02   9.75000024e-01   9.75000024e-01
           -2.50000004e-02   2.50000004e-02   2.50000004e-02
           -2.50000004e-02   9.75000024e-01   2.50000004e-02
           -9.75000024e-01   2.50000004e-02   9.75000024e-01
           -9.75000024e-01   9.75000024e-01   9.75000024e-01
           -9.75000024e-01   2.50000004e-02   2.50000004e-02
           -9.75000024e-01   9.75000024e-01   2.50000004e-02
        </DataArray>
      </Points>
      <Cells>
        <DataArray type="Int32" Name="connectivity" format="ascii">
          0 1 2 3 4 5 6 7
          8 9 10 11 12 13 14 15
        </DataArray>
        <DataArray type="Int32" Name="offsets" format="ascii">
          8 16
        </DataArray>
        <DataArray type="UInt8" Name="types" format="ascii">
          11 11
        </DataArray>
      </Cells>
      <CellData Scalars="mpirank,treeid">
        <DataArray type="Int32" Name="mpirank" format="ascii">
          0 0
        </DataArray>
        <DataArray type="Int32" Name="treeid" format="ascii">
          0 1
        </DataArray>
      </CellData>
      <PointData>
      </PointData>
    </Piece>
  </UnstructuredGrid>
</VTKFile>

