# vtk DataFile Version 5.1
vtk output
ASCII
DATASET UNSTRUCTURED_GRID
POINTS 1331 float
0 0 0 0.00015 0 0 0.0003 0 0 
0.00045 0 0 0.0006 0 0 0.00075 0 0 
0.0009 0 0 0.00105 0 0 0.0012 0 0 
0.00135 0 0 0.0015 0 0 0 0.00015 0 
0.00015 0.00015 0 0.0003 0.00015 0 0.00045 0.00015 0 
0.0006 0.00015 0 0.00075 0.00015 0 0.0009 0.00015 0 
0.00105 0.00015 0 0.0012 0.00015 0 0.00135 0.00015 0 
0.0015 0.00015 0 0 0.0003 0 0.00015 0.0003 0 
0.0003 0.0003 0 0.00045 0.0003 0 0.0006 0.0003 0 
0.00075 0.0003 0 0.0009 0.0003 0 0.00105 0.0003 0 
0.0012 0.0003 0 0.00135 0.0003 0 0.0015 0.0003 0 
0 0.00045 0 0.00015 0.00045 0 0.0003 0.00045 0 
0.00045 0.00045 0 0.0006 0.00045 0 0.00075 0.00045 0 
0.0009 0.00045 0 0.00105 0.00045 0 0.0012 0.00045 0 
0.00135 0.00045 0 0.0015 0.00045 0 0 0.0006 0 
0.00015 0.0006 0 0.0003 0.0006 0 0.00045 0.0006 0 
0.0006 0.0006 0 0.00075 0.0006 0 0.0009 0.0006 0 
0.00105 0.0006 0 0.0012 0.0006 0 0.00135 0.0006 0 
0.0015 0.0006 0 0 0.00075 0 0.00015 0.00075 0 
0.0003 0.00075 0 0.00045 0.00075 0 0.0006 0.00075 0 
0.00075 0.00075 0 0.0009 0.00075 0 0.00105 0.00075 0 
0.0012 0.00075 0 0.00135 0.00075 0 0.0015 0.00075 0 
0 0.0009 0 0.00015 0.0009 0 0.0003 0.0009 0 
0.00045 0.0009 0 0.0006 0.0009 0 0.00075 0.0009 0 
0.0009 0.0009 0 0.00105 0.0009 0 0.0012 0.0009 0 
0.00135 0.0009 0 0.0015 0.0009 0 0 0.00105 0 
0.00015 0.00105 0 0.0003 0.00105 0 0.00045 0.00105 0 
0.0006 0.00105 0 0.00075 0.00105 0 0.0009 0.00105 0 
0.00105 0.00105 0 0.0012 0.00105 0 0.00135 0.00105 0 
0.0015 0.00105 0 0 0.0012 0 0.00015 0.0012 0 
0.0003 0.0012 0 0.00045 0.0012 0 0.0006 0.0012 0 
0.00075 0.0012 0 0.0009 0.0012 0 0.00105 0.0012 0 
0.0012 0.0012 0 0.00135 0.0012 0 0.0015 0.0012 0 
0 0.00135 0 0.00015 0.00135 0 0.0003 0.00135 0 
0.00045 0.00135 0 0.0006 0.00135 0 0.00075 0.00135 0 
0.0009 0.00135 0 0.00105 0.00135 0 0.0012 0.00135 0 
0.00135 0.00135 0 0.0015 0.00135 0 0 0.0015 0 
0.00015 0.0015 0 0.0003 0.0015 0 0.00045 0.0015 0 
0.0006 0.0015 0 0.00075 0.0015 0 0.0009 0.0015 0 
0.00105 0.0015 0 0.0012 0.0015 0 0.00135 0.0015 0 
0.0015 0.0015 0 0 0 0.00015 0.00015 0 0.00015 
0.0003 0 0.00015 0.00045 0 0.00015 0.0006 0 0.00015 
0.00075 0 0.00015 0.0009 0 0.00015 0.00105 0 0.00015 
0.0012 0 0.00015 0.00135 0 0.00015 0.0015 0 0.00015 
0 0.00015 0.00015 0.00015 0.00015 0.00015 0.0003 0.00015 0.00015 
0.00045 0.00015 0.00015 0.0006 0.00015 0.00015 0.00075 0.00015 0.00015 
0.0009 0.00015 0.00015 0.00105 0.00015 0.00015 0.0012 0.00015 0.00015 
0.00135 0.00015 0.00015 0.0015 0.00015 0.00015 0 0.0003 0.00015 
0.00015 0.0003 0.00015 0.0003 0.0003 0.00015 0.00045 0.0003 0.00015 
0.0006 0.0003 0.00015 0.00075 0.0003 0.00015 0.0009 0.0003 0.00015 
0.00105 0.0003 0.00015 0.0012 0.0003 0.00015 0.00135 0.0003 0.00015 
0.0015 0.0003 0.00015 0 0.00045 0.00015 0.00015 0.00045 0.00015 
0.0003 0.00045 0.00015 0.00045 0.00045 0.00015 0.0006 0.00045 0.00015 
0.00075 0.00045 0.00015 0.0009 0.00045 0.00015 0.00105 0.00045 0.00015 
0.0012 0.00045 0.00015 0.00135 0.00045 0.00015 0.0015 0.00045 0.00015 
0 0.0006 0.00015 0.00015 0.0006 0.00015 0.0003 0.0006 0.00015 
0.00045 0.0006 0.00015 0.0006 0.0006 0.00015 0.00075 0.0006 0.00015 
0.0009 0.0006 0.00015 0.00105 0.0006 0.00015 0.0012 0.0006 0.00015 
0.00135 0.0006 0.00015 0.0015 0.0006 0.00015 0 0.00075 0.00015 
0.00015 0.00075 0.00015 0.0003 0.00075 0.00015 0.00045 0.00075 0.00015 
0.0006 0.00075 0.00015 0.00075 0.00075 0.00015 0.0009 0.00075 0.00015 
0.00105 0.00075 0.00015 0.0012 0.00075 0.00015 0.00135 0.00075 0.00015 
0.0015 0.00075 0.00015 0 0.0009 0.00015 0.00015 0.0009 0.00015 
0.0003 0.0009 0.00015 0.00045 0.0009 0.00015 0.0006 0.0009 0.00015 
0.00075 0.0009 0.00015 0.0009 0.0009 0.00015 0.00105 0.0009 0.00015 
0.0012 0.0009 0.00015 0.00135 0.0009 0.00015 0.0015 0.0009 0.00015 
0 0.00105 0.00015 0.00015 0.00105 0.00015 0.0003 0.00105 0.00015 
0.00045 0.00105 0.00015 0.0006 0.00105 0.00015 0.00075 0.00105 0.00015 
0.0009 0.00105 0.00015 0.00105 0.00105 0.00015 0.0012 0.00105 0.00015 
0.00135 0.00105 0.00015 0.0015 0.00105 0.00015 0 0.0012 0.00015 
0.00015 0.0012 0.00015 0.0003 0.0012 0.00015 0.00045 0.0012 0.00015 
0.0006 0.0012 0.00015 0.00075 0.0012 0.00015 0.0009 0.0012 0.00015 
0.00105 0.0012 0.00015 0.0012 0.0012 0.00015 0.00135 0.0012 0.00015 
0.0015 0.0012 0.00015 0 0.00135 0.00015 0.00015 0.00135 0.00015 
0.0003 0.00135 0.00015 0.00045 0.00135 0.00015 0.0006 0.00135 0.00015 
0.00075 0.00135 0.00015 0.0009 0.00135 0.00015 0.00105 0.00135 0.00015 
0.0012 0.00135 0.00015 0.00135 0.00135 0.00015 0.0015 0.00135 0.00015 
0 0.0015 0.00015 0.00015 0.0015 0.00015 0.0003 0.0015 0.00015 
0.00045 0.0015 0.00015 0.0006 0.0015 0.00015 0.00075 0.0015 0.00015 
0.0009 0.0015 0.00015 0.00105 0.0015 0.00015 0.0012 0.0015 0.00015 
0.00135 0.0015 0.00015 0.0015 0.0015 0.00015 0 0 0.0003 
0.00015 0 0.0003 0.0003 0 0.0003 0.00045 0 0.0003 
0.0006 0 0.0003 0.00075 0 0.0003 0.0009 0 0.0003 
0.00105 0 0.0003 0.0012 0 0.0003 0.00135 0 0.0003 
0.0015 0 0.0003 0 0.00015 0.0003 0.00015 0.00015 0.0003 
0.0003 0.00015 0.0003 0.00045 0.00015 0.0003 0.0006 0.00015 0.0003 
0.00075 0.00015 0.0003 0.0009 0.00015 0.0003 0.00105 0.00015 0.0003 
0.0012 0.00015 0.0003 0.00135 0.00015 0.0003 0.0015 0.00015 0.0003 
0 0.0003 0.0003 0.00015 0.0003 0.0003 0.0003 0.0003 0.0003 
0.00045 0.0003 0.0003 0.0006 0.0003 0.0003 0.00075 0.0003 0.0003 
0.0009 0.0003 0.0003 0.00105 0.0003 0.0003 0.0012 0.0003 0.0003 
0.00135 0.0003 0.0003 0.0015 0.0003 0.0003 0 0.00045 0.0003 
0.00015 0.00045 0.0003 0.0003 0.00045 0.0003 0.00045 0.00045 0.0003 
0.0006 0.00045 0.0003 0.00075 0.00045 0.0003 0.0009 0.00045 0.0003 
0.00105 0.00045 0.0003 0.0012 0.00045 0.0003 0.00135 0.00045 0.0003 
0.0015 0.00045 0.0003 0 0.0006 0.0003 0.00015 0.0006 0.0003 
0.0003 0.0006 0.0003 0.00045 0.0006 0.0003 0.0006 0.0006 0.0003 
0.00075 0.0006 0.0003 0.0009 0.0006 0.0003 0.00105 0.0006 0.0003 
0.0012 0.0006 0.0003 0.00135 0.0006 0.0003 0.0015 0.0006 0.0003 
0 0.00075 0.0003 0.00015 0.00075 0.0003 0.0003 0.00075 0.0003 
0.00045 0.00075 0.0003 0.0006 0.00075 0.0003 0.00075 0.00075 0.0003 
0.0009 0.00075 0.0003 0.00105 0.00075 0.0003 0.0012 0.00075 0.0003 
0.00135 0.00075 0.0003 0.0015 0.00075 0.0003 0 0.0009 0.0003 
0.00015 0.0009 0.0003 0.0003 0.0009 0.0003 0.00045 0.0009 0.0003 
0.0006 0.0009 0.0003 0.00075 0.0009 0.0003 0.0009 0.0009 0.0003 
0.00105 0.0009 0.0003 0.0012 0.0009 0.0003 0.00135 0.0009 0.0003 
0.0015 0.0009 0.0003 0 0.00105 0.0003 0.00015 0.00105 0.0003 
0.0003 0.00105 0.0003 0.00045 0.00105 0.0003 0.0006 0.00105 0.0003 
0.00075 0.00105 0.0003 0.0009 0.00105 0.0003 0.00105 0.00105 0.0003 
0.0012 0.00105 0.0003 0.00135 0.00105 0.0003 0.0015 0.00105 0.0003 
0 0.0012 0.0003 0.00015 0.0012 0.0003 0.0003 0.0012 0.0003 
0.00045 0.0012 0.0003 0.0006 0.0012 0.0003 0.00075 0.0012 0.0003 
0.0009 0.0012 0.0003 0.00105 0.0012 0.0003 0.0012 0.0012 0.0003 
0.00135 0.0012 0.0003 0.0015 0.0012 0.0003 0 0.00135 0.0003 
0.00015 0.00135 0.0003 0.0003 0.00135 0.0003 0.00045 0.00135 0.0003 
0.0006 0.00135 0.0003 0.00075 0.00135 0.0003 0.0009 0.00135 0.0003 
0.00105 0.00135 0.0003 0.0012 0.00135 0.0003 0.00135 0.00135 0.0003 
0.0015 0.00135 0.0003 0 0.0015 0.0003 0.00015 0.0015 0.0003 
0.0003 0.0015 0.0003 0.00045 0.0015 0.0003 0.0006 0.0015 0.0003 
0.00075 0.0015 0.0003 0.0009 0.0015 0.0003 0.00105 0.0015 0.0003 
0.0012 0.0015 0.0003 0.00135 0.0015 0.0003 0.0015 0.0015 0.0003 
0 0 0.00045 0.00015 0 0.00045 0.0003 0 0.00045 
0.00045 0 0.00045 0.0006 0 0.00045 0.00075 0 0.00045 
0.0009 0 0.00045 0.00105 0 0.00045 0.0012 0 0.00045 
0.00135 0 0.00045 0.0015 0 0.00045 0 0.00015 0.00045 
0.00015 0.00015 0.00045 0.0003 0.00015 0.00045 0.00045 0.00015 0.00045 
0.0006 0.00015 0.00045 0.00075 0.00015 0.00045 0.0009 0.00015 0.00045 
0.00105 0.00015 0.00045 0.0012 0.00015 0.00045 0.00135 0.00015 0.00045 
0.0015 0.00015 0.00045 0 0.0003 0.00045 0.00015 0.0003 0.00045 
0.0003 0.0003 0.00045 0.00045 0.0003 0.00045 0.0006 0.0003 0.00045 
0.00075 0.0003 0.00045 0.0009 0.0003 0.00045 0.00105 0.0003 0.00045 
0.0012 0.0003 0.00045 0.00135 0.0003 0.00045 0.0015 0.0003 0.00045 
0 0.00045 0.00045 0.00015 0.00045 0.00045 0.0003 0.00045 0.00045 
0.00045 0.00045 0.00045 0.0006 0.00045 0.00045 0.00075 0.00045 0.00045 
0.0009 0.00045 0.00045 0.00105 0.00045 0.00045 0.0012 0.00045 0.00045 
0.00135 0.00045 0.00045 0.0015 0.00045 0.00045 0 0.0006 0.00045 
0.00015 0.0006 0.00045 0.0003 0.0006 0.00045 0.00045 0.0006 0.00045 
0.0006 0.0006 0.00045 0.00075 0.0006 0.00045 0.0009 0.0006 0.00045 
0.00105 0.0006 0.00045 0.0012 0.0006 0.00045 0.00135 0.0006 0.00045 
0.0015 0.0006 0.00045 0 0.00075 0.00045 0.00015 0.00075 0.00045 
0.0003 0.00075 0.00045 0.00045 0.00075 0.00045 0.0006 0.00075 0.00045 
0.00075 0.00075 0.00045 0.0009 0.00075 0.00045 0.00105 0.00075 0.00045 
0.0012 0.00075 0.00045 0.00135 0.00075 0.00045 0.0015 0.00075 0.00045 
0 0.0009 0.00045 0.00015 0.0009 0.00045 0.0003 0.0009 0.00045 
0.00045 0.0009 0.00045 0.0006 0.0009 0.00045 0.00075 0.0009 0.00045 
0.0009 0.0009 0.00045 0.00105 0.0009 0.00045 0.0012 0.0009 0.00045 
0.00135 0.0009 0.00045 0.0015 0.0009 0.00045 0 0.00105 0.00045 
0.00015 0.00105 0.00045 0.0003 0.00105 0.00045 0.00045 0.00105 0.00045 
0.0006 0.00105 0.00045 0.00075 0.00105 0.00045 0.0009 0.00105 0.00045 
0.00105 0.00105 0.00045 0.0012 0.00105 0.00045 0.00135 0.00105 0.00045 
0.0015 0.00105 0.00045 0 0.0012 0.00045 0.00015 0.0012 0.00045 
0.0003 0.0012 0.00045 0.00045 0.0012 0.00045 0.0006 0.0012 0.00045 
0.00075 0.0012 0.00045 0.0009 0.0012 0.00045 0.00105 0.0012 0.00045 
0.0012 0.0012 0.00045 0.00135 0.0012 0.00045 0.0015 0.0012 0.00045 
0 0.00135 0.00045 0.00015 0.00135 0.00045 0.0003 0.00135 0.00045 
0.00045 0.00135 0.00045 0.0006 0.00135 0.00045 0.00075 0.00135 0.00045 
0.0009 0.00135 0.00045 0.00105 0.00135 0.00045 0.0012 0.00135 0.00045 
0.00135 0.00135 0.00045 0.0015 0.00135 0.00045 0 0.0015 0.00045 
0.00015 0.0015 0.00045 0.0003 0.0015 0.00045 0.00045 0.0015 0.00045 
0.0006 0.0015 0.00045 0.00075 0.0015 0.00045 0.0009 0.0015 0.00045 
[...]
CELL_DATA 1600
SCALARS MaterialID int
LOOKUP_TABLE default
1 3 1 3 3 3 1 1 1 
3 1 3 3 3 3 3 3 3 
3 1 3 3 1 1 3 3 3 
3 3 3 3 3 3 1 1 3 
3 3 3 3 3 3 3 3 3 
1 1 3 3 3 3 3 3 3 
3 1 3 3 3 3 3 3 3 
3 3 1 3 1 3 3 1 3 
3 3 3 3 3 1 3 3 1 
3 3 3 1 3 3 3 1 3 
3 3 3 3 3 3 3 3 3 
3 1 1 1 1 3 3 1 3 
3 1 1 3 3 3 3 3 1 
3 3 1 1 3 3 1 3 3 
1 3 3 3 3 1 3 3 1 
1 1 3 1 3 3 1 3 1 
3 3 1 1 3 3 1 3 3 
3 1 1 1 1 3 3 1 3 
3 3 1 1 1 3 3 3 3 
3 3 1 1 1 1 3 3 3 
1 1 3 1 1 1 3 3 3 
3 1 3 3 1 3 3 3 3 
1 3 3 3 1 1 3 1 1 
1 3 3 3 3 3 3 1 3 
1 3 3 3 3 3 3 3 1 
1 1 3 3 3 3 3 3 1 
1 3 3 1 1 3 1 3 1 
1 3 3 1 1 3 3 1 1 
1 1 1 1 3 1 3 1 1 
1 3 3 1 1 1 1 3 3 
3 3 1 1 1 1 1 3 3 
3 3 1 3 1 1 1 1 3 
3 3 3 1 1 3 3 1 1 
3 1 1 3 3 3 3 1 1 
1 1 1 1 3 3 3 3 1 
1 3 3 3 3 3 3 3 3 
3 1 3 3 3 1 3 3 3 
3 3 1 3 3 1 1 1 3 
3 3 3 3 3 1 3 3 1 
1 1 1 1 1 3 1 1 1 
1 1 1 1 1 1 1 3 3 
1 1 1 1 1 1 1 3 3 
1 3 1 1 1 1 1 3 3 
1 3 3 1 3 1 1 3 3 
3 3 3 3 3 3 1 3 3 
3 3 3 3 3 3 3 3 3 
3 3 3 3 3 3 3 3 3 
3 3 3 3 3 3 3 1 3 
3 3 3 1 3 3 3 3 1 
3 3 3 3 1 1 1 1 1 
1 1 3 3 3 3 3 1 3 
3 1 1 1 3 3 3 3 3 
3 3 3 3 1 1 1 3 3 
3 3 1 3 3 1 1 1 3 
3 3 3 3 3 3 1 1 1 
3 3 3 1 3 1 3 3 3 
3 3 3 3 3 3 3 1 1 
3 3 3 3 3 3 3 1 3 
1 3 3 1 3 3 3 3 3 
3 3 3 3 1 3 3 3 3 
1 3 3 3 1 3 1 1 1 
3 1 3 3 3 1 3 1 1 
3 3 3 3 3 3 3 3 3 
3 3 3 3 3 3 1 3 3 
3 1 3 3 3 3 3 1 1 
3 3 3 1 3 3 3 1 1 
1 3 3 3 1 3 3 3 3 
3 3 3 3 3 3 3 3 3 
3 3 1 3 3 3 3 3 3 
3 3 3 1 3 3 3 3 3 
1 3 3 3 1 1 1 3 3 
3 3 3 1 3 3 1 1 3 
3 3 3 3 3 3 3 3 1 
3 3 3 3 3 3 3 3 1 
1 3 3 3 3 3 3 3 3 
1 1 3 3 3 3 3 3 1 
1 3 3 3 3 3 3 1 3 
1 1 1 3 3 3 3 3 3 
3 3 3 3 3 3 3 3 3 
3 3 3 3 1 3 3 3 3 
3 3 3 3 3 1 3 1 3 
3 3 3 3 3 3 3 3 1 
1 3 3 3 3 3 1 3 3 
3 3 3 3 1 3 1 3 3 
3 3 3 3 3 3 1 3 3 
3 3 3 3 3 1 3 3 3 
3 1 3 3 3 1 3 3 3 
1 3 1 3 3 3 1 3 1 
3 1 1 3 3 1 3 3 3 
3 3 3 3 3 1 3 3 3 
3 3 3 3 3 3 1 3 3 
3 3 3 3 3 3 3 3 1 
3 3 1 3 3 3 3 3 3 
1 1 1 3 3 3 3 3 3 
3 3 3 3 3 3 1 3 3 
3 1 3 3 3 3 3 1 3 
3 3 1 3 1 1 3 3 1 
3 1 3 3 3 1 1 3 1 
1 1 3 3 3 3 1 1 3 
1 1 3 3 1 3 1 3 3 
1 3 3 3 3 3 1 3 3 
1 3 3 3 3 3 3 1 1 
3 1 3 3 3 3 3 3 3 
1 3 3 3 3 3 3 3 3 
3 3 1 1 3 1 1 3 3 
1 3 3 1 3 3 3 1 3 
3 3 3 3 1 1 3 1 1 
3 3 1 3 3 3 3 3 1 
1 3 3 1 3 3 3 1 3 
3 1 3 3 3 3 3 3 1 
3 1 1 1 1 3 3 3 1 
3 60 60 60 60 60 60 60 60 
60 60 60 60 60 60 60 60 60 
60 60 60 60 60 60 60 60 60 
60 60 60 60 60 60 60 60 60 
60 60 60 60 60 60 60 60 60 
60 60 60 60 60 60 60 60 60 
60 60 60 60 60 60 60 60 60 
60 60 60 60 60 60 60 60 60 
60 60 60 60 60 60 60 60 60 
60 60 60 60 60 60 60 60 60 
60 60 60 60 60 60 60 60 60 
60 60 50 50 50 50 50 50 50 
50 50 50 50 50 50 50 50 50 
50 50 50 50 50 50 50 50 50 
50 50 50 50 50 50 50 50 50 
50 50 50 50 50 50 50 50 50 
50 50 50 50 50 50 50 50 50 
50 50 50 50 50 50 50 50 50 
50 50 50 50 50 50 50 50 50 
50 50 50 50 50 50 50 50 50 
50 50 50 50 50 50 50 50 50 
50 50 50 50 50 50 50 50 50 
50 50 50 40 40 40 40 40 40 
40 40 40 40 40 40 40 40 40 
40 40 40 40 40 40 40 40 40 
40 40 40 40 40 40 40 40 40 
40 40 40 40 40 40 40 40 40 
40 40 40 40 40 40 40 40 40 
40 40 40 40 40 40 40 40 40 
40 40 40 40 40 40 40 40 40 
40 40 40 40 40 40 40 40 40 
40 40 40 40 40 40 40 40 40 
40 40 40 40 40 40 40 40 40 
40 40 40 40 30 30 30 30 30 
30 30 30 30 30 30 30 30 30 
30 30 30 30 30 30 30 30 30 
30 30 30 30 30 30 30 30 30 
30 30 30 30 30 30 30 30 30 
30 30 30 30 30 30 30 30 30 
30 30 30 30 30 30 30 30 30 
30 30 30 30 30 30 30 30 30 
30 30 30 30 30 30 30 30 30 
30 30 30 30 30 30 30 30 30 
30 30 30 30 30 30 30 30 30 
30 30 30 30 30 20 20 20 20 
20 20 20 20 20 20 20 20 20 
20 20 20 20 20 20 20 20 20 
20 20 20 20 20 20 20 20 20 
20 20 20 20 20 20 20 20 20 
20 20 20 20 20 20 20 20 20 
20 20 20 20 20 20 20 20 20 
20 20 20 20 20 20 20 20 20 
20 20 20 20 20 20 20 20 20 
20 20 20 20 20 20 20 20 20 
20 20 20 20 20 20 20 20 20 
20 20 20 20 20 20 10 10 10 
10 10 10 10 10 10 10 10 10 
10 10 10 10 10 10 10 10 10 
10 10 10 10 10 10 10 10 10 
10 10 10 10 10 10 10 10 10 
10 10 10 10 10 10 10 10 10 
10 10 10 10 10 10 10 10 10 
10 10 10 10 10 10 10 10 10 
10 10 10 10 10 10 10 10 10 
10 10 10 10 10 10 10 10 10 
10 10 10 10 10 10 10 10 10 
10 10 10 10 10 10 10 
