
DEAL::Checking Q1 in 1d:
object "vertices" class array type float rank 1 shape 1 items 6 data follows
0.50	
1.0	
0.0	
0.25	
0.25	
0.50	
object "cells" class array type int rank 1 shape 2 items 3 data follows
0	1
2	3
4	5

attribute "element type" string "lines"
attribute "ref" string "positions"
object "data" class array type float rank 1 shape 2 items 6 data follows
	0.0	0.0
	1.0	0.0
	2.0	1.0
	3.0	1.0
	3.0	2.0
	0.0	2.0
attribute "dep" string "positions"
object "deal data" class field
component "positions" value "vertices"
component "connections" value "cells"
component "data" value "data"
attribute 
end
# This file was generated by the deal.II library.


#
# For a description of the UCD format see the AVS Developer's guide.
#
6 3 2 0 0
1   0.50 0 0 
2   1.0 0 0 
3   0.0 0 0 
4   0.25 0 0 
5   0.25 0 0 
6   0.50 0 0 

1	0 line	1	2
2	0 line	3	4
3	0 line	5	6

2    1 1 
node_data,dimensionless
cell_data,dimensionless
1	0.0	0.0
2	1.0	0.0
3	2.0	1.0
4	3.0	1.0
5	3.0	2.0
6	0.0	2.0
gmvinput ascii

nodes 6
0.50 1.0 0.0 0.25 0.25 0.50 
0 0 0 0 0 0 
0 0 0 0 0 0 
cells 3
line 2
1	2
line 2
3	4
line 2
5	6
variable
node_data 1
0.0 1.0 2.0 3.0 3.0 0.0 

cell_data 1
0.0 0.0 1.0 1.0 2.0 2.0 

endvars
endgmv
# This file was generated by the deal.II library.


#
# For a description of the Tecplot format see the Tecplot documentation.
#
Variables="x", "node_data", "cell_data"
zone f=feblock, n=6, e=3, et=lineseg
0.50
1.0
0.0
0.25
0.25
0.50

0.0
1.0
2.0
3.0
3.0
0.0

0.0
0.0
1.0
1.0
2.0
2.0

1	2
3	4
5	6
# vtk DataFile Version 3.0
#This file was generated 
ASCII
DATASET UNSTRUCTURED_GRID

POINTS 6 double
0.50 0 0
1.0 0 0
0.0 0 0
0.25 0 0
0.25 0 0
0.50 0 0

CELLS 3 9
2	0	1
2	2	3
2	4	5

CELL_TYPES 3
 3 3 3
POINT_DATA 6
SCALARS node_data double 1
LOOKUP_TABLE default
0.0 1.0 2.0 3.0 3.0 0.0 
SCALARS cell_data double 1
LOOKUP_TABLE default
0.0 0.0 1.0 1.0 2.0 2.0 
# This file was generated by the deal.II library.


#
# For a description of the GNUPLOT format see the GNUPLOT manual.
#
# <x> <node_data> <cell_data> 
0.50 0.0 0.0 
1.0 1.0 0.0 


0.0 2.0 1.0 
0.25 3.0 1.0 


0.25 3.0 2.0 
0.50 0.0 2.0 


1 1
[deal.II intermediate format graphics data]
[written by deal.II x.y.z]
[Version: 3]
2
node_data
cell_data
3
[deal.II intermediate Patch<1,1>]
0.50 1.0 
4294967295 4294967295 
0 1
0
2 2
0.0 1.0 0.0 0.0 


[deal.II intermediate Patch<1,1>]
0.0 0.25 
4294967295 2 
1 1
0
2 2
2.0 3.0 1.0 1.0 


[deal.II intermediate Patch<1,1>]
0.25 0.50 
1 4294967295 
2 1
0
2 2
3.0 0.0 2.0 2.0 


0

DEAL::Checking Q1 in 2d:
object "vertices" class array type float rank 1 shape 2 items 28 data follows
0.50	0.0	
1.0	0.0	
0.50	0.50	
1.0	0.50	
0.0	0.50	
0.50	0.50	
0.0	1.0	
0.50	1.0	
0.50	0.50	
1.0	0.50	
0.50	1.0	
1.0	1.0	
0.0	0.0	
0.25	0.0	
0.0	0.25	
0.25	0.25	
0.25	0.0	
0.50	0.0	
0.25	0.25	
0.50	0.25	
0.0	0.25	
0.25	0.25	
0.0	0.50	
0.25	0.50	
0.25	0.25	
0.50	0.25	
0.25	0.50	
0.50	0.50	
object "cells" class array type int rank 1 shape 4 items 7 data follows
0	2	1	3
4	6	5	7
8	10	9	11
12	14	13	15
16	18	17	19
20	22	21	23
24	26	25	27

attribute "element type" string "quads"
attribute "ref" string "positions"
object "data" class array type float rank 1 shape 2 items 28 data follows
	0.0	0.0
	1.0	0.0
	2.0	0.0
	3.0	0.0
	4.0	1.0
	2.0	1.0
	5.0	1.0
	6.0	1.0
	2.0	2.0
	3.0	2.0
	6.0	2.0
	7.0	2.0
	8.0	3.0
	9.0	3.0
	10.	3.0
	11.	3.0
	9.0	4.0
	0.0	4.0
	11.	4.0
	12.	4.0
	10.	5.0
	11.	5.0
	4.0	5.0
	13.	5.0
	11.	6.0
	12.	6.0
	13.	6.0
	2.0	6.0
attribute "dep" string "positions"
object "deal data" class field
component "positions" value "vertices"
component "connections" value "cells"
component "data" value "data"
attribute 
end
# This file was generated by the deal.II library.


#
# For a description of the UCD format see the AVS Developer's guide.
#
28 7 2 0 0
1   0.50 0.0 0 
2   1.0 0.0 0 
3   0.50 0.50 0 
4   1.0 0.50 0 
5   0.0 0.50 0 
6   0.50 0.50 0 
7   0.0 1.0 0 
8   0.50 1.0 0 
9   0.50 0.50 0 
10   1.0 0.50 0 
11   0.50 1.0 0 
12   1.0 1.0 0 
13   0.0 0.0 0 
14   0.25 0.0 0 
15   0.0 0.25 0 
16   0.25 0.25 0 
17   0.25 0.0 0 
18   0.50 0.0 0 
19   0.25 0.25 0 
20   0.50 0.25 0 
21   0.0 0.25 0 
22   0.25 0.25 0 
23   0.0 0.50 0 
24   0.25 0.50 0 
25   0.25 0.25 0 
26   0.50 0.25 0 
27   0.25 0.50 0 
28   0.50 0.50 0 

1	0 quad	1	2	4	3
2	0 quad	5	6	8	7
3	0 quad	9	10	12	11
4	0 quad	13	14	16	15
5	0 quad	17	18	20	19
6	0 quad	21	22	24	23
7	0 quad	25	26	28	27

2    1 1 
node_data,dimensionless
cell_data,dimensionless
1	0.0	0.0
2	1.0	0.0
3	2.0	0.0
4	3.0	0.0
5	4.0	1.0
6	2.0	1.0
7	5.0	1.0
8	6.0	1.0
9	2.0	2.0
10	3.0	2.0
11	6.0	2.0
12	7.0	2.0
13	8.0	3.0
14	9.0	3.0
15	10.	3.0
16	11.	3.0
17	9.0	4.0
18	0.0	4.0
19	11.	4.0
20	12.	4.0
21	10.	5.0
22	11.	5.0
23	4.0	5.0
24	13.	5.0
25	11.	6.0
26	12.	6.0
27	13.	6.0
28	2.0	6.0
gmvinput ascii

nodes 28
0.50 1.0 0.50 1.0 0.0 0.50 0.0 0.50 0.50 1.0 0.50 1.0 0.0 0.25 0.0 0.25 0.25 0.50 0.25 0.50 0.0 0.25 0.0 0.25 0.25 0.50 0.25 0.50 
0.0 0.0 0.50 0.50 0.50 0.50 1.0 1.0 0.50 0.50 1.0 1.0 0.0 0.0 0.25 0.25 0.0 0.0 0.25 0.25 0.25 0.25 0.50 0.50 0.25 0.25 0.50 0.50 
0 0 0 0 0 0 0 0 0 0 0 0 0 0 0 0 0 0 0 0 0 0 0 0 0 0 0 0 
cells 7
quad 4
1	2	4	3
quad 4
5	6	8	7
quad 4
9	10	12	11
quad 4
13	14	16	15
quad 4
17	18	20	19
quad 4
21	22	24	23
quad 4
25	26	28	27
variable
node_data 1
0.0 1.0 2.0 3.0 4.0 2.0 5.0 6.0 2.0 3.0 6.0 7.0 8.0 9.0 10. 11. 9.0 0.0 11. 12. 10. 11. 4.0 13. 11. 12. 13. 2.0 

cell_data 1
0.0 0.0 0.0 0.0 1.0 1.0 1.0 1.0 2.0 2.0 2.0 2.0 3.0 3.0 3.0 3.0 4.0 4.0 4.0 4.0 5.0 5.0 5.0 5.0 6.0 6.0 6.0 6.0 

endvars
endgmv
# This file was generated by the deal.II library.


#
# For a description of the Tecplot format see the Tecplot documentation.
#
Variables="x", "y", "node_data", "cell_data"
zone f=feblock, n=28, e=7, et=quadrilateral
0.50
1.0
0.50
1.0
0.0
0.50
0.0
0.50
0.50
1.0
0.50
1.0
0.0
0.25
0.0
0.25
0.25
0.50
0.25
0.50
0.0
0.25
0.0
0.25
0.25
0.50
0.25
0.50

0.0
0.0
0.50
0.50
0.50
0.50
1.0
1.0
0.50
0.50
1.0
1.0
0.0
0.0
0.25
0.25
0.0
0.0
0.25
0.25
0.25
0.25
0.50
0.50
0.25
0.25
0.50
0.50

0.0
1.0
2.0
3.0
4.0
2.0
5.0
6.0
2.0
3.0
6.0
7.0
8.0
9.0
10.
11.
9.0
0.0
11.
12.
10.
11.
4.0
13.
11.
12.
13.
2.0

0.0
0.0
0.0
0.0
1.0
1.0
1.0
1.0
2.0
2.0
2.0
2.0
3.0
3.0
3.0
3.0
4.0
4.0
4.0
4.0
5.0
5.0
5.0
5.0
6.0
6.0
6.0
6.0

1	2	4	3
5	6	8	7
9	10	12	11
13	14	16	15
17	18	20	19
21	22	24	23
25	26	28	27
# vtk DataFile Version 3.0
#This file was generated 
ASCII
DATASET UNSTRUCTURED_GRID

POINTS 28 double
0.50 0.0 0
1.0 0.0 0
0.50 0.50 0
1.0 0.50 0
0.0 0.50 0
0.50 0.50 0
0.0 1.0 0
0.50 1.0 0
0.50 0.50 0
1.0 0.50 0
0.50 1.0 0
1.0 1.0 0
0.0 0.0 0
0.25 0.0 0
0.0 0.25 0
0.25 0.25 0
0.25 0.0 0
0.50 0.0 0
0.25 0.25 0
0.50 0.25 0
0.0 0.25 0
0.25 0.25 0
0.0 0.50 0
0.25 0.50 0
0.25 0.25 0
0.50 0.25 0
0.25 0.50 0
0.50 0.50 0

CELLS 7 35
4	0	1	3	2
4	4	5	7	6
4	8	9	11	10
4	12	13	15	14
4	16	17	19	18
4	20	21	23	22
4	24	25	27	26

CELL_TYPES 7
 9 9 9 9 9 9 9
POINT_DATA 28
SCALARS node_data double 1
LOOKUP_TABLE default
0.0 1.0 2.0 3.0 4.0 2.0 5.0 6.0 2.0 3.0 6.0 7.0 8.0 9.0 10. 11. 9.0 0.0 11. 12. 10. 11. 4.0 13. 11. 12. 13. 2.0 
SCALARS cell_data double 1
LOOKUP_TABLE default
0.0 0.0 0.0 0.0 1.0 1.0 1.0 1.0 2.0 2.0 2.0 2.0 3.0 3.0 3.0 3.0 4.0 4.0 4.0 4.0 5.0 5.0 5.0 5.0 6.0 6.0 6.0 6.0 
# This file was generated by the deal.II library.


#
# For a description of the GNUPLOT format see the GNUPLOT manual.
#
# <x> <y> <node_data> <cell_data> 
0.50 0.0 0.0 0.0 
1.0 0.0 1.0 0.0 

0.50 0.50 2.0 0.0 
1.0 0.50 3.0 0.0 


0.0 0.50 4.0 1.0 
0.50 0.50 2.0 1.0 

0.0 1.0 5.0 1.0 
0.50 1.0 6.0 1.0 


0.50 0.50 2.0 2.0 
1.0 0.50 3.0 2.0 

0.50 1.0 6.0 2.0 
1.0 1.0 7.0 2.0 


0.0 0.0 8.0 3.0 
0.25 0.0 9.0 3.0 

0.0 0.25 10. 3.0 
0.25 0.25 11. 3.0 


0.25 0.0 9.0 4.0 
0.50 0.0 0.0 4.0 

0.25 0.25 11. 4.0 
0.50 0.25 12. 4.0 


0.0 0.25 10. 5.0 
0.25 0.25 11. 5.0 

0.0 0.50 4.0 5.0 
0.25 0.50 13. 5.0 


0.25 0.25 11. 6.0 
0.50 0.25 12. 6.0 

0.25 0.50 13. 6.0 
0.50 0.50 2.0 6.0 


2 2
[deal.II intermediate format graphics data]
[written by deal.II x.y.z]
[Version: 3]
2
node_data
cell_data
7
[deal.II intermediate Patch<2,2>]
0.50 0.0 1.0 0.0 1.0 0.50 0.50 0.50 
4294967295 4294967295 4294967295 2 
0 1
0
2 4
0.0 1.0 2.0 3.0 0.0 0.0 0.0 0.0 


[deal.II intermediate Patch<2,2>]
0.0 0.50 0.50 0.50 0.50 1.0 0.0 1.0 
4294967295 2 4294967295 4294967295 
1 1
0
2 4
4.0 2.0 5.0 6.0 1.0 1.0 1.0 1.0 


[deal.II intermediate Patch<2,2>]
0.50 0.50 1.0 0.50 1.0 1.0 0.50 1.0 
1 4294967295 0 4294967295 
2 1
0
2 4
2.0 3.0 6.0 7.0 2.0 2.0 2.0 2.0 


[deal.II intermediate Patch<2,2>]
0.0 0.0 0.25 0.0 0.25 0.25 0.0 0.25 
4294967295 4 4294967295 5 
3 1
0
2 4
8.0 9.0 10. 11. 3.0 3.0 3.0 3.0 


[deal.II intermediate Patch<2,2>]
0.25 0.0 0.50 0.0 0.50 0.25 0.25 0.25 
3 4294967295 4294967295 6 
4 1
0
2 4
9.0 0.0 11. 12. 4.0 4.0 4.0 4.0 


[deal.II intermediate Patch<2,2>]
0.0 0.25 0.25 0.25 0.25 0.50 0.0 0.50 
4294967295 6 3 4294967295 
5 1
0
2 4
10. 11. 4.0 13. 5.0 5.0 5.0 5.0 


[deal.II intermediate Patch<2,2>]
0.25 0.25 0.50 0.25 0.50 0.50 0.25 0.50 
5 4294967295 4 4294967295 
6 1
0
2 4
11. 12. 13. 2.0 6.0 6.0 6.0 6.0 


0

/* This file was generated by the deal.II library.



   For a description of the POVRAY format see the POVRAY manual.
*/ 
#include "colors.inc" 
#include "textures.inc" 


camera {
  location <1,4,-7>
  look_at <0,0,0>
  angle 30
}

light_source {
  <1,4,-7>
  color Grey
}

light_source {
  <0,20,0>
  color White
}
#declare HMIN=0.0;
#declare HMAX=13.;

#declare Tex=texture{
  pigment {
    gradient y
    scale y*(HMAX-HMIN)*0.10
    color_map {
      [0.00 color Light_Purple] 
      [0.95 color Light_Purple] 
      [1.00 color White]    
} } }


mesh {
triangle {
	<0.50,0.0,0.0>,
	<1.0,1.0,0.0>,
	<1.0,3.0,0.50>}
triangle {
	<0.50,0.0,0.0>,
	<1.0,3.0,0.50>,
	<0.50,2.0,0.50>}
triangle {
	<0.0,4.0,0.50>,
	<0.50,2.0,0.50>,
	<0.50,6.0,1.0>}
triangle {
	<0.0,4.0,0.50>,
	<0.50,6.0,1.0>,
	<0.0,5.0,1.0>}
triangle {
	<0.50,2.0,0.50>,
	<1.0,3.0,0.50>,
	<1.0,7.0,1.0>}
triangle {
	<0.50,2.0,0.50>,
	<1.0,7.0,1.0>,
	<0.50,6.0,1.0>}
triangle {
	<0.0,8.0,0.0>,
	<0.25,9.0,0.0>,
	<0.25,11.,0.25>}
triangle {
	<0.0,8.0,0.0>,
	<0.25,11.,0.25>,
	<0.0,10.,0.25>}
triangle {
	<0.25,9.0,0.0>,
	<0.50,0.0,0.0>,
	<0.50,12.,0.25>}
triangle {
	<0.25,9.0,0.0>,
	<0.50,12.,0.25>,
	<0.25,11.,0.25>}
triangle {
	<0.0,10.,0.25>,
	<0.25,11.,0.25>,
	<0.25,13.,0.50>}
triangle {
	<0.0,10.,0.25>,
	<0.25,13.,0.50>,
	<0.0,4.0,0.50>}
triangle {
	<0.25,11.,0.25>,
	<0.50,12.,0.25>,
	<0.50,2.0,0.50>}
triangle {
	<0.25,11.,0.25>,
	<0.50,2.0,0.50>,
	<0.25,13.,0.50>}
  texture {Tex}
}

%!PS-Adobe-2.0 EPSF-1.2
%%Title: deal.II Output
%%Creator: the deal.II library

%%BoundingBox: 0 0 300 2534
/m {moveto} bind def
/l {lineto} bind def
/s {setrgbcolor} bind def
/sg {setgray} bind def
/lx {lineto closepath stroke} bind def
/lf {lineto closepath fill} bind def
%%EndProlog

0.50 setlinewidth
0.0000 sg 95.096 0.0000 m 190.19 162.74 l 245.10 590.67 l 150.00 427.93 lf
0 sg 95.096 0.0000 m 190.19 162.74 l 245.10 590.67 l 150.00 427.93 lx
0.0000 0.37500 0.62500 s 54.904 835.77 m 150.00 427.93 l 204.90 1236.3 l 109.81 1073.5 lf
0 sg 54.904 835.77 m 150.00 427.93 l 204.90 1236.3 l 109.81 1073.5 lx
0.0000 0.50000 0.50000 s 150.00 427.93 m 245.10 590.67 l 300.00 1399.0 l 204.90 1236.3 lf
0 sg 150.00 427.93 m 245.10 590.67 l 300.00 1399.0 l 204.90 1236.3 lx
1.0000 0.25000 0.25000 s 47.548 1725.5 m 95.096 0.0000 l 122.55 2306.1 l 75.000 2129.6 lf
0 sg 47.548 1725.5 m 95.096 0.0000 l 122.55 2306.1 l 75.000 2129.6 lx
1.0000 sg 27.452 1953.1 m 75.000 2129.6 l 102.45 2533.8 l 54.904 835.77 lf
0 sg 27.452 1953.1 m 75.000 2129.6 l 102.45 2533.8 l 54.904 835.77 lx
1.0000 sg 75.000 2129.6 m 122.55 2306.1 l 150.00 427.93 l 102.45 2533.8 lf
0 sg 75.000 2129.6 m 122.55 2306.1 l 150.00 427.93 l 102.45 2533.8 lx
1.0000 sg 0.0000 1549.0 m 47.548 1725.5 l 75.000 2129.6 l 27.452 1953.1 lf
0 sg 0.0000 1549.0 m 47.548 1725.5 l 75.000 2129.6 l 27.452 1953.1 lx
showpage
DEAL::Checking Q1 in 3d:
object "vertices" class array type float rank 1 shape 3 items 120 data follows
0.50	0.0	0.0	
1.0	0.0	0.0	
0.50	0.50	0.0	
1.0	0.50	0.0	
0.50	0.0	0.50	
1.0	0.0	0.50	
0.50	0.50	0.50	
1.0	0.50	0.50	
0.0	0.50	0.0	
0.50	0.50	0.0	
0.0	1.0	0.0	
0.50	1.0	0.0	
0.0	0.50	0.50	
0.50	0.50	0.50	
0.0	1.0	0.50	
0.50	1.0	0.50	
0.50	0.50	0.0	
1.0	0.50	0.0	
0.50	1.0	0.0	
1.0	1.0	0.0	
0.50	0.50	0.50	
1.0	0.50	0.50	
0.50	1.0	0.50	
1.0	1.0	0.50	
0.0	0.0	0.50	
0.50	0.0	0.50	
0.0	0.50	0.50	
0.50	0.50	0.50	
0.0	0.0	1.0	
0.50	0.0	1.0	
0.0	0.50	1.0	
0.50	0.50	1.0	
0.50	0.0	0.50	
1.0	0.0	0.50	
0.50	0.50	0.50	
1.0	0.50	0.50	
0.50	0.0	1.0	
1.0	0.0	1.0	
0.50	0.50	1.0	
1.0	0.50	1.0	
0.0	0.50	0.50	
0.50	0.50	0.50	
0.0	1.0	0.50	
0.50	1.0	0.50	
0.0	0.50	1.0	
0.50	0.50	1.0	
0.0	1.0	1.0	
0.50	1.0	1.0	
0.50	0.50	0.50	
1.0	0.50	0.50	
0.50	1.0	0.50	
1.0	1.0	0.50	
0.50	0.50	1.0	
1.0	0.50	1.0	
0.50	1.0	1.0	
1.0	1.0	1.0	
0.0	0.0	0.0	
0.25	0.0	0.0	
0.0	0.25	0.0	
0.25	0.25	0.0	
0.0	0.0	0.25	
0.25	0.0	0.25	
0.0	0.25	0.25	
0.25	0.25	0.25	
0.25	0.0	0.0	
0.50	0.0	0.0	
0.25	0.25	0.0	
0.50	0.25	0.0	
0.25	0.0	0.25	
0.50	0.0	0.25	
0.25	0.25	0.25	
0.50	0.25	0.25	
0.0	0.25	0.0	
0.25	0.25	0.0	
0.0	0.50	0.0	
0.25	0.50	0.0	
0.0	0.25	0.25	
0.25	0.25	0.25	
0.0	0.50	0.25	
0.25	0.50	0.25	
0.25	0.25	0.0	
0.50	0.25	0.0	
0.25	0.50	0.0	
0.50	0.50	0.0	
0.25	0.25	0.25	
0.50	0.25	0.25	
0.25	0.50	0.25	
0.50	0.50	0.25	
0.0	0.0	0.25	
0.25	0.0	0.25	
0.0	0.25	0.25	
0.25	0.25	0.25	
0.0	0.0	0.50	
0.25	0.0	0.50	
0.0	0.25	0.50	
0.25	0.25	0.50	
0.25	0.0	0.25	
0.50	0.0	0.25	
0.25	0.25	0.25	
0.50	0.25	0.25	
0.25	0.0	0.50	
0.50	0.0	0.50	
0.25	0.25	0.50	
0.50	0.25	0.50	
0.0	0.25	0.25	
0.25	0.25	0.25	
0.0	0.50	0.25	
0.25	0.50	0.25	
0.0	0.25	0.50	
0.25	0.25	0.50	
0.0	0.50	0.50	
0.25	0.50	0.50	
0.25	0.25	0.25	
0.50	0.25	0.25	
0.25	0.50	0.25	
0.50	0.50	0.25	
0.25	0.25	0.50	
0.50	0.25	0.50	
0.25	0.50	0.50	
0.50	0.50	0.50	
object "cells" class array type int rank 1 shape 8 items 15 data follows
0	4	2	6	1	5	3	7
8	12	10	14	9	13	11	15
16	20	18	22	17	21	19	23
24	28	26	30	25	29	27	31
32	36	34	38	33	37	35	39
40	44	42	46	41	45	43	47
48	52	50	54	49	53	51	55
56	60	58	62	57	61	59	63
64	68	66	70	65	69	67	71
72	76	74	78	73	77	75	79
80	84	82	86	81	85	83	87
88	92	90	94	89	93	91	95
96	100	98	102	97	101	99	103
104	108	106	110	105	109	107	111
112	116	114	118	113	117	115	119

attribute "element type" string "cubes"
attribute "ref" string "positions"
object "data" class array type float rank 1 shape 2 items 120 data follows
	0.0	0.0
	1.0	0.0
	2.0	0.0
	3.0	0.0
	4.0	0.0
	5.0	0.0
	6.0	0.0
	7.0	0.0
	8.0	1.0
	2.0	1.0
	9.0	1.0
	10.	1.0
	11.	1.0
	6.0	1.0
	12.	1.0
	13.	1.0
	2.0	2.0
	3.0	2.0
	10.	2.0
	14.	2.0
	6.0	2.0
	7.0	2.0
	13.	2.0
	15.	2.0
	16.	3.0
	4.0	3.0
	11.	3.0
	6.0	3.0
	17.	3.0
	18.	3.0
	19.	3.0
	20.	3.0
	4.0	4.0
	5.0	4.0
	6.0	4.0
	7.0	4.0
	18.	4.0
	21.	4.0
	20.	4.0
	22.	4.0
	11.	5.0
	6.0	5.0
	12.	5.0
	13.	5.0
	19.	5.0
	20.	5.0
	23.	5.0
	24.	5.0
	6.0	6.0
	7.0	6.0
	13.	6.0
	15.	6.0
	20.	6.0
	22.	6.0
	24.	6.0
	25.	6.0
	26.	7.0
	27.	7.0
	28.	7.0
	29.	7.0
	30.	7.0
	31.	7.0
	32.	7.0
	33.	7.0
	27.	8.0
	0.0	8.0
	29.	8.0
	34.	8.0
	31.	8.0
	35.	8.0
	33.	8.0
	36.	8.0
	28.	9.0
	29.	9.0
	8.0	9.0
	37.	9.0
	32.	9.0
	33.	9.0
	38.	9.0
	39.	9.0
	29.	10.
	34.	10.
	37.	10.
	2.0	10.
	33.	10.
	36.	10.
	39.	10.
	40.	10.
	30.	11.
	31.	11.
	32.	11.
	33.	11.
	16.	11.
	41.	11.
	42.	11.
	43.	11.
	31.	12.
	35.	12.
	33.	12.
	36.	12.
	41.	12.
	4.0	12.
	43.	12.
	44.	12.
	32.	13.
	33.	13.
	38.	13.
	39.	13.
	42.	13.
	43.	13.
	11.	13.
	45.	13.
	33.	14.
	36.	14.
	39.	14.
	40.	14.
	43.	14.
	44.	14.
	45.	14.
	6.0	14.
attribute "dep" string "positions"
object "deal data" class field
component "positions" value "vertices"
component "connections" value "cells"
component "data" value "data"
attribute 
end
# This file was generated by the deal.II library.


#
# For a description of the UCD format see the AVS Developer's guide.
#
120 15 2 0 0
1   0.50 0.0 0.0 
2   1.0 0.0 0.0 
3   0.50 0.50 0.0 
4   1.0 0.50 0.0 
5   0.50 0.0 0.50 
6   1.0 0.0 0.50 
7   0.50 0.50 0.50 
8   1.0 0.50 0.50 
9   0.0 0.50 0.0 
10   0.50 0.50 0.0 
11   0.0 1.0 0.0 
12   0.50 1.0 0.0 
13   0.0 0.50 0.50 
14   0.50 0.50 0.50 
15   0.0 1.0 0.50 
16   0.50 1.0 0.50 
17   0.50 0.50 0.0 
18   1.0 0.50 0.0 
19   0.50 1.0 0.0 
20   1.0 1.0 0.0 
21   0.50 0.50 0.50 
22   1.0 0.50 0.50 
23   0.50 1.0 0.50 
24   1.0 1.0 0.50 
25   0.0 0.0 0.50 
26   0.50 0.0 0.50 
27   0.0 0.50 0.50 
28   0.50 0.50 0.50 
29   0.0 0.0 1.0 
30   0.50 0.0 1.0 
31   0.0 0.50 1.0 
32   0.50 0.50 1.0 
33   0.50 0.0 0.50 
34   1.0 0.0 0.50 
35   0.50 0.50 0.50 
36   1.0 0.50 0.50 
37   0.50 0.0 1.0 
38   1.0 0.0 1.0 
39   0.50 0.50 1.0 
40   1.0 0.50 1.0 
41   0.0 0.50 0.50 
42   0.50 0.50 0.50 
43   0.0 1.0 0.50 
44   0.50 1.0 0.50 
45   0.0 0.50 1.0 
46   0.50 0.50 1.0 
47   0.0 1.0 1.0 
48   0.50 1.0 1.0 
49   0.50 0.50 0.50 
50   1.0 0.50 0.50 
51   0.50 1.0 0.50 
52   1.0 1.0 0.50 
53   0.50 0.50 1.0 
54   1.0 0.50 1.0 
55   0.50 1.0 1.0 
56   1.0 1.0 1.0 
57   0.0 0.0 0.0 
58   0.25 0.0 0.0 
59   0.0 0.25 0.0 
60   0.25 0.25 0.0 
61   0.0 0.0 0.25 
62   0.25 0.0 0.25 
63   0.0 0.25 0.25 
64   0.25 0.25 0.25 
65   0.25 0.0 0.0 
66   0.50 0.0 0.0 
67   0.25 0.25 0.0 
68   0.50 0.25 0.0 
69   0.25 0.0 0.25 
70   0.50 0.0 0.25 
71   0.25 0.25 0.25 
72   0.50 0.25 0.25 
73   0.0 0.25 0.0 
74   0.25 0.25 0.0 
75   0.0 0.50 0.0 
76   0.25 0.50 0.0 
77   0.0 0.25 0.25 
78   0.25 0.25 0.25 
79   0.0 0.50 0.25 
80   0.25 0.50 0.25 
81   0.25 0.25 0.0 
82   0.50 0.25 0.0 
83   0.25 0.50 0.0 
84   0.50 0.50 0.0 
85   0.25 0.25 0.25 
86   0.50 0.25 0.25 
87   0.25 0.50 0.25 
88   0.50 0.50 0.25 
89   0.0 0.0 0.25 
90   0.25 0.0 0.25 
91   0.0 0.25 0.25 
92   0.25 0.25 0.25 
93   0.0 0.0 0.50 
94   0.25 0.0 0.50 
95   0.0 0.25 0.50 
96   0.25 0.25 0.50 
97   0.25 0.0 0.25 
98   0.50 0.0 0.25 
99   0.25 0.25 0.25 
100   0.50 0.25 0.25 
101   0.25 0.0 0.50 
102   0.50 0.0 0.50 
103   0.25 0.25 0.50 
104   0.50 0.25 0.50 
105   0.0 0.25 0.25 
106   0.25 0.25 0.25 
107   0.0 0.50 0.25 
108   0.25 0.50 0.25 
109   0.0 0.25 0.50 
110   0.25 0.25 0.50 
111   0.0 0.50 0.50 
112   0.25 0.50 0.50 
113   0.25 0.25 0.25 
114   0.50 0.25 0.25 
115   0.25 0.50 0.25 
116   0.50 0.50 0.25 
117   0.25 0.25 0.50 
118   0.50 0.25 0.50 
119   0.25 0.50 0.50 
120   0.50 0.50 0.50 

1	0 hex	1	2	5	6	4	3	8	7
2	0 hex	9	10	13	14	12	11	16	15
3	0 hex	17	18	21	22	20	19	24	23
4	0 hex	25	26	29	30	28	27	32	31
5	0 hex	33	34	37	38	36	35	40	39
6	0 hex	41	42	45	46	44	43	48	47
7	0 hex	49	50	53	54	52	51	56	55
8	0 hex	57	58	61	62	60	59	64	63
9	0 hex	65	66	69	70	68	67	72	71
10	0 hex	73	74	77	78	76	75	80	79
11	0 hex	81	82	85	86	84	83	88	87
12	0 hex	89	90	93	94	92	91	96	95
13	0 hex	97	98	101	102	100	99	104	103
14	0 hex	105	106	109	110	108	107	112	111
15	0 hex	113	114	117	118	116	115	120	119

2    1 1 
node_data,dimensionless
cell_data,dimensionless
1	0.0	0.0
2	1.0	0.0
3	2.0	0.0
4	3.0	0.0
5	4.0	0.0
6	5.0	0.0
7	6.0	0.0
8	7.0	0.0
9	8.0	1.0
10	2.0	1.0
11	9.0	1.0
12	10.	1.0
13	11.	1.0
14	6.0	1.0
15	12.	1.0
16	13.	1.0
17	2.0	2.0
18	3.0	2.0
19	10.	2.0
20	14.	2.0
21	6.0	2.0
22	7.0	2.0
23	13.	2.0
24	15.	2.0
25	16.	3.0
26	4.0	3.0
27	11.	3.0
28	6.0	3.0
29	17.	3.0
30	18.	3.0
31	19.	3.0
32	20.	3.0
33	4.0	4.0
34	5.0	4.0
35	6.0	4.0
36	7.0	4.0
37	18.	4.0
38	21.	4.0
39	20.	4.0
40	22.	4.0
41	11.	5.0
42	6.0	5.0
43	12.	5.0
44	13.	5.0
45	19.	5.0
46	20.	5.0
47	23.	5.0
48	24.	5.0
49	6.0	6.0
50	7.0	6.0
51	13.	6.0
52	15.	6.0
53	20.	6.0
54	22.	6.0
55	24.	6.0
56	25.	6.0
57	26.	7.0
58	27.	7.0
59	28.	7.0
60	29.	7.0
61	30.	7.0
62	31.	7.0
63	32.	7.0
64	33.	7.0
65	27.	8.0
66	0.0	8.0
67	29.	8.0
68	34.	8.0
69	31.	8.0
70	35.	8.0
71	33.	8.0
72	36.	8.0
73	28.	9.0
74	29.	9.0
75	8.0	9.0
76	37.	9.0
77	32.	9.0
78	33.	9.0
79	38.	9.0
80	39.	9.0
81	29.	10.
82	34.	10.
83	37.	10.
84	2.0	10.
85	33.	10.
86	36.	10.
87	39.	10.
88	40.	10.
89	30.	11.
90	31.	11.
91	32.	11.
92	33.	11.
93	16.	11.
94	41.	11.
95	42.	11.
96	43.	11.
97	31.	12.
98	35.	12.
99	33.	12.
100	36.	12.
101	41.	12.
102	4.0	12.
103	43.	12.
104	44.	12.
105	32.	13.
106	33.	13.
107	38.	13.
108	39.	13.
109	42.	13.
110	43.	13.
111	11.	13.
112	45.	13.
113	33.	14.
114	36.	14.
115	39.	14.
116	40.	14.
117	43.	14.
118	44.	14.
119	45.	14.
120	6.0	14.
gmvinput ascii

nodes 120
0.50 1.0 0.50 1.0 0.50 1.0 0.50 1.0 0.0 0.50 0.0 0.50 0.0 0.50 0.0 0.50 0.50 1.0 0.50 1.0 0.50 1.0 0.50 1.0 0.0 0.50 0.0 0.50 0.0 0.50 0.0 0.50 0.50 1.0 0.50 1.0 0.50 1.0 0.50 1.0 0.0 0.50 0.0 0.50 0.0 0.50 0.0 0.50 0.50 1.0 0.50 1.0 0.50 1.0 0.50 1.0 0.0 0.25 0.0 0.25 0.0 0.25 0.0 0.25 0.25 0.50 0.25 0.50 0.25 0.50 0.25 0.50 0.0 0.25 0.0 0.25 0.0 0.25 0.0 0.25 0.25 0.50 0.25 0.50 0.25 0.50 0.25 0.50 0.0 0.25 0.0 0.25 0.0 0.25 0.0 0.25 0.25 0.50 0.25 0.50 0.25 0.50 0.25 0.50 0.0 0.25 0.0 0.25 0.0 0.25 0.0 0.25 0.25 0.50 0.25 0.50 0.25 0.50 0.25 0.50 
0.0 0.0 0.50 0.50 0.0 0.0 0.50 0.50 0.50 0.50 1.0 1.0 0.50 0.50 1.0 1.0 0.50 0.50 1.0 1.0 0.50 0.50 1.0 1.0 0.0 0.0 0.50 0.50 0.0 0.0 0.50 0.50 0.0 0.0 0.50 0.50 0.0 0.0 0.50 0.50 0.50 0.50 1.0 1.0 0.50 0.50 1.0 1.0 0.50 0.50 1.0 1.0 0.50 0.50 1.0 1.0 0.0 0.0 0.25 0.25 0.0 0.0 0.25 0.25 0.0 0.0 0.25 0.25 0.0 0.0 0.25 0.25 0.25 0.25 0.50 0.50 0.25 0.25 0.50 0.50 0.25 0.25 0.50 0.50 0.25 0.25 0.50 0.50 0.0 0.0 0.25 0.25 0.0 0.0 0.25 0.25 0.0 0.0 0.25 0.25 0.0 0.0 0.25 0.25 0.25 0.25 0.50 0.50 0.25 0.25 0.50 0.50 0.25 0.25 0.50 0.50 0.25 0.25 0.50 0.50 
0.0 0.0 0.0 0.0 0.50 0.50 0.50 0.50 0.0 0.0 0.0 0.0 0.50 0.50 0.50 0.50 0.0 0.0 0.0 0.0 0.50 0.50 0.50 0.50 0.50 0.50 0.50 0.50 1.0 1.0 1.0 1.0 0.50 0.50 0.50 0.50 1.0 1.0 1.0 1.0 0.50 0.50 0.50 0.50 1.0 1.0 1.0 1.0 0.50 0.50 0.50 0.50 1.0 1.0 1.0 1.0 0.0 0.0 0.0 0.0 0.25 0.25 0.25 0.25 0.0 0.0 0.0 0.0 0.25 0.25 0.25 0.25 0.0 0.0 0.0 0.0 0.25 0.25 0.25 0.25 0.0 0.0 0.0 0.0 0.25 0.25 0.25 0.25 0.25 0.25 0.25 0.25 0.50 0.50 0.50 0.50 0.25 0.25 0.25 0.25 0.50 0.50 0.50 0.50 0.25 0.25 0.25 0.25 0.50 0.50 0.50 0.50 0.25 0.25 0.25 0.25 0.50 0.50 0.50 0.50 
cells 15
hex 8
1	2	4	3	5	6	8	7
hex 8
9	10	12	11	13	14	16	15
hex 8
17	18	20	19	21	22	24	23
hex 8
25	26	28	27	29	30	32	31
hex 8
33	34	36	35	37	38	40	39
hex 8
41	42	44	43	45	46	48	47
hex 8
49	50	52	51	53	54	56	55
hex 8
57	58	60	59	61	62	64	63
hex 8
65	66	68	67	69	70	72	71
hex 8
73	74	76	75	77	78	80	79
hex 8
81	82	84	83	85	86	88	87
hex 8
89	90	92	91	93	94	96	95
hex 8
97	98	100	99	101	102	104	103
hex 8
105	106	108	107	109	110	112	111
hex 8
113	114	116	115	117	118	120	119
variable
node_data 1
0.0 1.0 2.0 3.0 4.0 5.0 6.0 7.0 8.0 2.0 9.0 10. 11. 6.0 12. 13. 2.0 3.0 10. 14. 6.0 7.0 13. 15. 16. 4.0 11. 6.0 17. 18. 19. 20. 4.0 5.0 6.0 7.0 18. 21. 20. 22. 11. 6.0 12. 13. 19. 20. 23. 24. 6.0 7.0 13. 15. 20. 22. 24. 25. 26. 27. 28. 29. 30. 31. 32. 33. 27. 0.0 29. 34. 31. 35. 33. 36. 28. 29. 8.0 37. 32. 33. 38. 39. 29. 34. 37. 2.0 33. 36. 39. 40. 30. 31. 32. 33. 16. 41. 42. 43. 31. 35. 33. 36. 41. 4.0 43. 44. 32. 33. 38. 39. 42. 43. 11. 45. 33. 36. 39. 40. 43. 44. 45. 6.0 

cell_data 1
0.0 0.0 0.0 0.0 0.0 0.0 0.0 0.0 1.0 1.0 1.0 1.0 1.0 1.0 1.0 1.0 2.0 2.0 2.0 2.0 2.0 2.0 2.0 2.0 3.0 3.0 3.0 3.0 3.0 3.0 3.0 3.0 4.0 4.0 4.0 4.0 4.0 4.0 4.0 4.0 5.0 5.0 5.0 5.0 5.0 5.0 5.0 5.0 6.0 6.0 6.0 6.0 6.0 6.0 6.0 6.0 7.0 7.0 7.0 7.0 7.0 7.0 7.0 7.0 8.0 8.0 8.0 8.0 8.0 8.0 8.0 8.0 9.0 9.0 9.0 9.0 9.0 9.0 9.0 9.0 10. 10. 10. 10. 10. 10. 10. 10. 11. 11. 11. 11. 11. 11. 11. 11. 12. 12. 12. 12. 12. 12. 12. 12. 13. 13. 13. 13. 13. 13. 13. 13. 14. 14. 14. 14. 14. 14. 14. 14. 

endvars
endgmv
# This file was generated by the deal.II library.


#
# For a description of the Tecplot format see the Tecplot documentation.
#
Variables="x", "y", "z", "node_data", "cell_data"
zone f=feblock, n=120, e=15, et=brick
0.50
1.0
0.50
1.0
0.50
1.0
0.50
1.0
0.0
0.50
0.0
0.50
0.0
0.50
0.0
0.50
0.50
1.0
0.50
1.0
0.50
1.0
0.50
1.0
0.0
0.50
0.0
0.50
0.0
0.50
0.0
0.50
0.50
1.0
0.50
1.0
0.50
1.0
0.50
1.0
0.0
0.50
0.0
0.50
0.0
0.50
0.0
0.50
0.50
1.0
0.50
1.0
0.50
1.0
0.50
1.0
0.0
0.25
0.0
0.25
0.0
0.25
0.0
0.25
0.25
0.50
0.25
0.50
0.25
0.50
0.25
0.50
0.0
0.25
0.0
0.25
0.0
0.25
0.0
0.25
0.25
0.50
0.25
0.50
0.25
0.50
0.25
0.50
0.0
0.25
0.0
0.25
0.0
0.25
0.0
0.25
0.25
0.50
0.25
0.50
0.25
0.50
0.25
0.50
0.0
0.25
0.0
0.25
0.0
0.25
0.0
0.25
0.25
0.50
0.25
0.50
0.25
0.50
0.25
0.50

0.0
0.0
0.50
0.50
0.0
0.0
0.50
0.50
0.50
0.50
1.0
1.0
0.50
0.50
1.0
1.0
0.50
0.50
1.0
1.0
0.50
0.50
1.0
1.0
0.0
0.0
0.50
0.50
0.0
0.0
0.50
0.50
0.0
0.0
0.50
0.50
0.0
0.0
0.50
0.50
0.50
0.50
1.0
1.0
0.50
0.50
1.0
1.0
0.50
0.50
1.0
1.0
0.50
0.50
1.0
1.0
0.0
0.0
0.25
0.25
0.0
0.0
0.25
0.25
0.0
0.0
0.25
0.25
0.0
0.0
0.25
0.25
0.25
0.25
0.50
0.50
0.25
0.25
0.50
0.50
0.25
0.25
0.50
0.50
0.25
0.25
0.50
0.50
0.0
0.0
0.25
0.25
0.0
0.0
0.25
0.25
0.0
0.0
0.25
0.25
0.0
0.0
0.25
0.25
0.25
0.25
0.50
0.50
0.25
0.25
0.50
0.50
0.25
0.25
0.50
0.50
0.25
0.25
0.50
0.50

0.0
0.0
0.0
0.0
0.50
0.50
0.50
0.50
0.0
0.0
0.0
0.0
0.50
0.50
0.50
0.50
0.0
0.0
0.0
0.0
0.50
0.50
0.50
0.50
0.50
0.50
0.50
0.50
1.0
1.0
1.0
1.0
0.50
0.50
0.50
0.50
1.0
1.0
1.0
1.0
0.50
0.50
0.50
0.50
1.0
1.0
1.0
1.0
0.50
0.50
0.50
0.50
1.0
1.0
1.0
1.0
0.0
0.0
0.0
0.0
0.25
0.25
0.25
0.25
0.0
0.0
0.0
0.0
0.25
0.25
0.25
0.25
0.0
0.0
0.0
0.0
0.25
0.25
0.25
0.25
0.0
0.0
0.0
0.0
0.25
0.25
0.25
0.25
0.25
0.25
0.25
0.25
0.50
0.50
0.50
0.50
0.25
0.25
0.25
0.25
0.50
0.50
0.50
0.50
0.25
0.25
0.25
0.25
0.50
0.50
0.50
0.50
0.25
0.25
0.25
0.25
0.50
0.50
0.50
0.50

0.0
1.0
2.0
3.0
4.0
5.0
6.0
7.0
8.0
2.0
9.0
10.
11.
6.0
12.
13.
2.0
3.0
10.
14.
6.0
7.0
13.
15.
16.
4.0
11.
6.0
17.
18.
19.
20.
4.0
5.0
6.0
7.0
18.
21.
20.
22.
11.
6.0
12.
13.
19.
20.
23.
24.
6.0
7.0
13.
15.
20.
22.
24.
25.
26.
27.
28.
29.
30.
31.
32.
33.
27.
0.0
29.
34.
31.
35.
33.
36.
28.
29.
8.0
37.
32.
33.
38.
39.
29.
34.
37.
2.0
33.
36.
39.
40.
30.
31.
32.
33.
16.
41.
42.
43.
31.
35.
33.
36.
41.
4.0
43.
44.
32.
33.
38.
39.
42.
43.
11.
45.
33.
36.
39.
40.
43.
44.
45.
6.0

0.0
0.0
0.0
0.0
0.0
0.0
0.0
0.0
1.0
1.0
1.0
1.0
1.0
1.0
1.0
1.0
2.0
2.0
2.0
2.0
2.0
2.0
2.0
2.0
3.0
3.0
3.0
3.0
3.0
3.0
3.0
3.0
4.0
4.0
4.0
4.0
4.0
4.0
4.0
4.0
5.0
5.0
5.0
5.0
5.0
5.0
5.0
5.0
6.0
6.0
6.0
6.0
6.0
6.0
6.0
6.0
7.0
7.0
7.0
7.0
7.0
7.0
7.0
7.0
8.0
8.0
8.0
8.0
8.0
8.0
8.0
8.0
9.0
9.0
9.0
9.0
9.0
9.0
9.0
9.0
10.
10.
10.
10.
10.
10.
10.
10.
11.
11.
11.
11.
11.
11.
11.
11.
12.
12.
12.
12.
12.
12.
12.
12.
13.
13.
13.
13.
13.
13.
13.
13.
14.
14.
14.
14.
14.
14.
14.
14.

1	2	4	3	5	6	8	7
9	10	12	11	13	14	16	15
17	18	20	19	21	22	24	23
25	26	28	27	29	30	32	31
33	34	36	35	37	38	40	39
41	42	44	43	45	46	48	47
49	50	52	51	53	54	56	55
57	58	60	59	61	62	64	63
65	66	68	67	69	70	72	71
73	74	76	75	77	78	80	79
81	82	84	83	85	86	88	87
89	90	92	91	93	94	96	95
97	98	100	99	101	102	104	103
105	106	108	107	109	110	112	111
113	114	116	115	117	118	120	119
# vtk DataFile Version 3.0
#This file was generated 
ASCII
DATASET UNSTRUCTURED_GRID

POINTS 120 double
0.50 0.0 0.0
1.0 0.0 0.0
0.50 0.50 0.0
1.0 0.50 0.0
0.50 0.0 0.50
1.0 0.0 0.50
0.50 0.50 0.50
1.0 0.50 0.50
0.0 0.50 0.0
0.50 0.50 0.0
0.0 1.0 0.0
0.50 1.0 0.0
0.0 0.50 0.50
0.50 0.50 0.50
0.0 1.0 0.50
0.50 1.0 0.50
0.50 0.50 0.0
1.0 0.50 0.0
0.50 1.0 0.0
1.0 1.0 0.0
0.50 0.50 0.50
1.0 0.50 0.50
0.50 1.0 0.50
1.0 1.0 0.50
0.0 0.0 0.50
0.50 0.0 0.50
0.0 0.50 0.50
0.50 0.50 0.50
0.0 0.0 1.0
0.50 0.0 1.0
0.0 0.50 1.0
0.50 0.50 1.0
0.50 0.0 0.50
1.0 0.0 0.50
0.50 0.50 0.50
1.0 0.50 0.50
0.50 0.0 1.0
1.0 0.0 1.0
0.50 0.50 1.0
1.0 0.50 1.0
0.0 0.50 0.50
0.50 0.50 0.50
0.0 1.0 0.50
0.50 1.0 0.50
0.0 0.50 1.0
0.50 0.50 1.0
0.0 1.0 1.0
0.50 1.0 1.0
0.50 0.50 0.50
1.0 0.50 0.50
0.50 1.0 0.50
1.0 1.0 0.50
0.50 0.50 1.0
1.0 0.50 1.0
0.50 1.0 1.0
1.0 1.0 1.0
0.0 0.0 0.0
0.25 0.0 0.0
0.0 0.25 0.0
0.25 0.25 0.0
0.0 0.0 0.25
0.25 0.0 0.25
0.0 0.25 0.25
0.25 0.25 0.25
0.25 0.0 0.0
0.50 0.0 0.0
0.25 0.25 0.0
0.50 0.25 0.0
0.25 0.0 0.25
0.50 0.0 0.25
0.25 0.25 0.25
0.50 0.25 0.25
0.0 0.25 0.0
0.25 0.25 0.0
0.0 0.50 0.0
0.25 0.50 0.0
0.0 0.25 0.25
0.25 0.25 0.25
0.0 0.50 0.25
0.25 0.50 0.25
0.25 0.25 0.0
0.50 0.25 0.0
0.25 0.50 0.0
0.50 0.50 0.0
0.25 0.25 0.25
0.50 0.25 0.25
0.25 0.50 0.25
0.50 0.50 0.25
0.0 0.0 0.25
0.25 0.0 0.25
0.0 0.25 0.25
0.25 0.25 0.25
0.0 0.0 0.50
0.25 0.0 0.50
0.0 0.25 0.50
0.25 0.25 0.50
0.25 0.0 0.25
0.50 0.0 0.25
0.25 0.25 0.25
0.50 0.25 0.25
0.25 0.0 0.50
0.50 0.0 0.50
0.25 0.25 0.50
0.50 0.25 0.50
0.0 0.25 0.25
0.25 0.25 0.25
0.0 0.50 0.25
0.25 0.50 0.25
0.0 0.25 0.50
0.25 0.25 0.50
0.0 0.50 0.50
0.25 0.50 0.50
0.25 0.25 0.25
0.50 0.25 0.25
0.25 0.50 0.25
0.50 0.50 0.25
0.25 0.25 0.50
0.50 0.25 0.50
0.25 0.50 0.50
0.50 0.50 0.50

CELLS 15 135
8	0	1	3	2	4	5	7	6
8	8	9	11	10	12	13	15	14
8	16	17	19	18	20	21	23	22
8	24	25	27	26	28	29	31	30
8	32	33	35	34	36	37	39	38
8	40	41	43	42	44	45	47	46
8	48	49	51	50	52	53	55	54
8	56	57	59	58	60	61	63	62
8	64	65	67	66	68	69	71	70
8	72	73	75	74	76	77	79	78
8	80	81	83	82	84	85	87	86
8	88	89	91	90	92	93	95	94
8	96	97	99	98	100	101	103	102
8	104	105	107	106	108	109	111	110
8	112	113	115	114	116	117	119	118

CELL_TYPES 15
 12 12 12 12 12 12 12 12 12 12 12 12 12 12 12
POINT_DATA 120
SCALARS node_data double 1
LOOKUP_TABLE default
0.0 1.0 2.0 3.0 4.0 5.0 6.0 7.0 8.0 2.0 9.0 10. 11. 6.0 12. 13. 2.0 3.0 10. 14. 6.0 7.0 13. 15. 16. 4.0 11. 6.0 17. 18. 19. 20. 4.0 5.0 6.0 7.0 18. 21. 20. 22. 11. 6.0 12. 13. 19. 20. 23. 24. 6.0 7.0 13. 15. 20. 22. 24. 25. 26. 27. 28. 29. 30. 31. 32. 33. 27. 0.0 29. 34. 31. 35. 33. 36. 28. 29. 8.0 37. 32. 33. 38. 39. 29. 34. 37. 2.0 33. 36. 39. 40. 30. 31. 32. 33. 16. 41. 42. 43. 31. 35. 33. 36. 41. 4.0 43. 44. 32. 33. 38. 39. 42. 43. 11. 45. 33. 36. 39. 40. 43. 44. 45. 6.0 
SCALARS cell_data double 1
LOOKUP_TABLE default
0.0 0.0 0.0 0.0 0.0 0.0 0.0 0.0 1.0 1.0 1.0 1.0 1.0 1.0 1.0 1.0 2.0 2.0 2.0 2.0 2.0 2.0 2.0 2.0 3.0 3.0 3.0 3.0 3.0 3.0 3.0 3.0 4.0 4.0 4.0 4.0 4.0 4.0 4.0 4.0 5.0 5.0 5.0 5.0 5.0 5.0 5.0 5.0 6.0 6.0 6.0 6.0 6.0 6.0 6.0 6.0 7.0 7.0 7.0 7.0 7.0 7.0 7.0 7.0 8.0 8.0 8.0 8.0 8.0 8.0 8.0 8.0 9.0 9.0 9.0 9.0 9.0 9.0 9.0 9.0 10. 10. 10. 10. 10. 10. 10. 10. 11. 11. 11. 11. 11. 11. 11. 11. 12. 12. 12. 12. 12. 12. 12. 12. 13. 13. 13. 13. 13. 13. 13. 13. 14. 14. 14. 14. 14. 14. 14. 14. 
# This file was generated by the deal.II library.


#
# For a description of the GNUPLOT format see the GNUPLOT manual.
#
# <x> <y> <z> <node_data> <cell_data> 
0.50 0.0 0.0 0.0 0.0
1.0 0.0 0.0 1.0 0.0


0.50 0.0 0.0 0.0 0.0
0.50 0.50 0.0 2.0 0.0


0.50 0.0 0.0 0.0 0.0