# coordinates x and y
# new format of keys
# unstructured data
TITLE = "quad Mesh File"
VARIABLES = "X", "Y"
ZONE T="Zone-4" N=8 E=4 C=BLACK DATAPACKING=POINT ZONETYPE=FEQUADRILATERAL
DT=(SINGLE SINGLE)
1 0
0 1
-1 0
0 -1
2 0
0 2
-2 0
0 -2

1 5 6 2
2 6 7 3
3 7 8 4
4 8 5 1
