# vtk DataFile Version 3.0
vtk output
ASCII
DATASET UNSTRUCTURED_GRID
POINTS 4 float
-0.5 -0.5 0 0.5 -0.5 0 -0.5 0.5 0 
0.5 0.5 0 
CELLS 1 5
4 0 1 3 2
CELL_DATA 1
SCALARS MaterialID double
LOOKUP_TABLE default
1