# vtk DataFile Version 3.0
Triangulation generated with deal.II
ASCII
DATASET UNSTRUCTURED_GRID
POINTS 25 double
0 0 0
1 0 0
0 1 0
1 1 0
0.25 0 0
0 0.25 0
1 0.25 0
0.25 1 0
0.25 0.25 0
0.0625 0 0
0.5625 0 0
0 0.0625 0
0 0.5625 0
1 0.0625 0
1 0.5625 0
0.0625 1 0
0.5625 1 0
0.25 0.0625 0
0.25 0.5625 0
0.0625 0.25 0
0.5625 0.25 0
0.0625 0.0625 0
0.5625 0.0625 0
0.0625 0.5625 0
0.5625 0.5625 0

CELLS 56 200
4 0 9 21 11
4 9 4 17 21
4 11 21 19 5
4 21 17 8 19
4 4 10 22 17
4 10 1 13 22
4 17 22 20 8
4 22 13 6 20
4 5 19 23 12
4 19 8 18 23
4 12 23 15 2
4 23 18 7 15
4 8 20 24 18
4 20 6 14 24
4 18 24 16 7
4 24 14 3 16
2 0 9
2 9 4
2 4 10
2 10 1
2 0 11
2 11 5
2 5 12
2 12 2
2 1 13
2 13 6
2 6 14
2 14 3
2 2 15
2 15 7
2 7 16
2 16 3
2 4 17
2 17 8
2 8 18
2 18 7
2 5 19
2 19 8
2 8 20
2 20 6
2 9 21
2 21 19
2 11 21
2 21 17
2 10 22
2 22 20
2 17 22
2 22 13
2 19 23
2 23 15
2 12 23
2 23 18
2 20 24
2 24 16
2 18 24
2 24 14

CELL_TYPES 56
9 9 9 9 9 9 9 9 9 9 9 9 9 9 9 9 
3 3 3 3 3 3 3 3 3 3 3 3 3 3 3 3 3 3 3 3 3 3 3 3 3 3 3 3 3 3 3 3 3 3 3 3 3 3 3 3 


CELL_DATA 56
SCALARS MaterialID int 1
LOOKUP_TABLE default
0 0 0 0 0 0 0 0 0 0 0 0 0 0 0 0 
0 0 0 0 0 0 0 0 0 0 0 0 0 0 0 0 -1 -1 -1 -1 -1 -1 -1 -1 -1 -1 -1 -1 -1 -1 -1 -1 -1 -1 -1 -1 -1 -1 -1 -1 


SCALARS ManifoldID int 1
LOOKUP_TABLE default
0 0 0 0 0 0 0 0 0 0 0 0 0 0 0 0 
0 0 0 0 0 0 0 0 0 0 0 0 0 0 0 0 0 0 0 0 0 0 0 0 0 0 0 0 0 0 0 0 0 0 0 0 0 0 0 0 
