# vtk DataFile Version 3.0
tet, Created by Gmsh
ASCII
DATASET UNSTRUCTURED_GRID
POINTS 14 double
0 0 1
0 0 0
0 1 1
0 1 0
1 0 1
1 0 0
1 1 1
1 1 0
0 0.5 0.5
1 0.5 0.5
0.5 0 0.5
0.5 1 0.5
0.5 0.5 0
0.5 0.5 1

CELLS 24 120
4 13 10 11 9
4 9 10 11 12
4 11 8 10 13
4 8 11 10 12
4 4 13 6 9
4 3 8 11 2
4 1 8 0 10
4 0 8 2 13
4 4 10 0 13
4 9 4 10 5
4 11 2 13 6
4 9 11 6 7
4 1 3 8 12
4 11 3 7 12
4 12 7 9 5
4 12 10 1 5
4 13 4 10 9
4 8 11 2 13
4 6 13 11 9
4 8 0 10 13
4 10 1 8 12
4 11 8 3 12
4 7 9 11 12
4 12 9 10 5

CELL_TYPES 24
10
10
10
10
10
10
10
10
10
10
10
10
10
10
10
10
10
10
10
10
10
10
10
10

CELL_DATA 24
SCALARS CellEntityIds int 1
LOOKUP_TABLE default
1
1
1
1
1
1
1
1
1
1
1
1
1
1
1
1
1
1
1
1
1
1
1
1
