
DEAL::Checking Q1 in 1d:
object "vertices" class array type float rank 1 shape 1 items 6 data follows
0.50	
1.0	
0.0	
0.25	
0.25	
0.50	
object "cells" class array type int rank 1 shape 2 items 3 data follows
0	1
2	3
4	5

attribute "element type" string "lines"
attribute "ref" string "positions"
object "data" class array type float rank 1 shape 2 items 6 data follows
0.0	0.0	
1.0	0.0	
2.0	1.0	
3.0	1.0	
3.0	2.0	
0.0	2.0	
attribute "dep" string "positions"
object "deal data" class field
component "positions" value "vertices"
component "connections" value "cells"
component "data" value "data"
attribute 
end
# This file was generated by the deal.II library.


#
# For a description of the UCD format see the AVS Developer's guide.
#
6 3 2 0 0
1   0.50 0 0 
2   1.0 0 0 
3   0.0 0 0 
4   0.25 0 0 
5   0.25 0 0 
6   0.50 0 0 
1 0  line  1 2
2 0  line  3 4
3 0  line  5 6

2    1 1 
node_data,dimensionless
cell_data,dimensionless
1  0.0 0.0 
2  1.0 0.0 
3  2.0 1.0 
4  3.0 1.0 
5  3.0 2.0 
6  0.0 2.0 
gmvinput ascii

nodes 6
0.50 1.0 0.0 0.25 0.25 0.50 
0 0 0 0 0 0 
0 0 0 0 0 0 

cells 3
line 2
  1 2
line 2
  3 4
line 2
  5 6

variable
node_data 1
0.0 1.0 2.0 3.0 3.0 0.0 

cell_data 1
0.0 0.0 1.0 1.0 2.0 2.0 

endvars
endgmv
# This file was generated by the deal.II library.


#
# For a description of the Tecplot format see the Tecplot documentation.
#
Variables="x", "node_data", "cell_data"
zone f=block, n=6
0.50
1.0
0.0
0.25
0.25
0.50

0.0
1.0
2.0
3.0
3.0
0.0

0.0
0.0
1.0
1.0
2.0
2.0

# vtk DataFile Version 3.0
This file was generated 
ASCII
DATASET UNSTRUCTURED_GRID
POINTS 6 double
0.50 0 0
1.0 0 0
0.0 0 0
0.25 0 0
0.25 0 0
0.50 0 0
CELLS 3 9
2 0 1
2 2 3
2 4 5
CELL_TYPES 3
3
3
3
POINT_DATA 6
SCALARS node_data double 1
LOOKUP_TABLE default
0.0 1.0 2.0 3.0 3.0 0.0 
SCALARS cell_data double 1
LOOKUP_TABLE default
0.0 0.0 1.0 1.0 2.0 2.0 
# This file was generated by the deal.II library.


#
# For a description of the GNUPLOT format see the GNUPLOT manual.
#
# <x> <node_data> <cell_data> 
0.50 0.0 0.0 
1.0 1.0 0.0 


0.0 2.0 1.0 
0.25 3.0 1.0 


0.25 3.0 2.0 
0.50 0.0 2.0 


1 1
[deal.II intermediate format graphics data]
[written by deal.II 5.3.pre]
2
node_data
cell_data
3
[deal.II intermediate Patch<1,1>]
0.50 1.0 
4294967295 4294967295 
0 1
2 2
0.0 1.0 0.0 0.0 


[deal.II intermediate Patch<1,1>]
0.0 0.25 
4294967295 2 
1 1
2 2
2.0 3.0 1.0 1.0 


[deal.II intermediate Patch<1,1>]
0.25 0.50 
1 4294967295 
2 1
2 2
3.0 0.0 2.0 2.0 



DEAL::Checking Q1 in 2d:
object "vertices" class array type float rank 1 shape 2 items 28 data follows
0.50	0.0	
0.50	0.50	
1.0	0.0	
1.0	0.50	
0.0	0.50	
0.0	1.0	
0.50	0.50	
0.50	1.0	
0.50	0.50	
0.50	1.0	
1.0	0.50	
1.0	1.0	
0.0	0.0	
0.0	0.25	
0.25	0.0	
0.25	0.25	
0.25	0.0	
0.25	0.25	
0.50	0.0	
0.50	0.25	
0.0	0.25	
0.0	0.50	
0.25	0.25	
0.25	0.50	
0.25	0.25	
0.25	0.50	
0.50	0.25	
0.50	0.50	
object "cells" class array type int rank 1 shape 4 items 7 data follows
0	1	2	3
4	5	6	7
8	9	10	11
12	13	14	15
16	17	18	19
20	21	22	23
24	25	26	27

attribute "element type" string "quads"
attribute "ref" string "positions"
object "data" class array type float rank 1 shape 2 items 28 data follows
0.0	0.0	
2.0	0.0	
1.0	0.0	
3.0	0.0	
4.0	1.0	
5.0	1.0	
2.0	1.0	
6.0	1.0	
2.0	2.0	
6.0	2.0	
3.0	2.0	
7.0	2.0	
8.0	3.0	
10.	3.0	
9.0	3.0	
11.	3.0	
9.0	4.0	
11.	4.0	
0.0	4.0	
12.	4.0	
10.	5.0	
4.0	5.0	
11.	5.0	
13.	5.0	
11.	6.0	
13.	6.0	
12.	6.0	
2.0	6.0	
attribute "dep" string "positions"
object "deal data" class field
component "positions" value "vertices"
component "connections" value "cells"
component "data" value "data"
attribute 
end
# This file was generated by the deal.II library.


#
# For a description of the UCD format see the AVS Developer's guide.
#
28 7 2 0 0
1   0.50 0.0 0 
2   0.50 0.50 0 
3   1.0 0.0 0 
4   1.0 0.50 0 
5   0.0 0.50 0 
6   0.0 1.0 0 
7   0.50 0.50 0 
8   0.50 1.0 0 
9   0.50 0.50 0 
10   0.50 1.0 0 
11   1.0 0.50 0 
12   1.0 1.0 0 
13   0.0 0.0 0 
14   0.0 0.25 0 
15   0.25 0.0 0 
16   0.25 0.25 0 
17   0.25 0.0 0 
18   0.25 0.25 0 
19   0.50 0.0 0 
20   0.50 0.25 0 
21   0.0 0.25 0 
22   0.0 0.50 0 
23   0.25 0.25 0 
24   0.25 0.50 0 
25   0.25 0.25 0 
26   0.25 0.50 0 
27   0.50 0.25 0 
28   0.50 0.50 0 
1 0  quad  1 3 4 2
2 0  quad  5 7 8 6
3 0  quad  9 11 12 10
4 0  quad  13 15 16 14
5 0  quad  17 19 20 18
6 0  quad  21 23 24 22
7 0  quad  25 27 28 26

2    1 1 
node_data,dimensionless
cell_data,dimensionless
1  0.0 0.0 
2  2.0 0.0 
3  1.0 0.0 
4  3.0 0.0 
5  4.0 1.0 
6  5.0 1.0 
7  2.0 1.0 
8  6.0 1.0 
9  2.0 2.0 
10  6.0 2.0 
11  3.0 2.0 
12  7.0 2.0 
13  8.0 3.0 
14  10. 3.0 
15  9.0 3.0 
16  11. 3.0 
17  9.0 4.0 
18  11. 4.0 
19  0.0 4.0 
20  12. 4.0 
21  10. 5.0 
22  4.0 5.0 
23  11. 5.0 
24  13. 5.0 
25  11. 6.0 
26  13. 6.0 
27  12. 6.0 
28  2.0 6.0 
gmvinput ascii

nodes 28
0.50 0.50 1.0 1.0 0.0 0.0 0.50 0.50 0.50 0.50 1.0 1.0 0.0 0.0 0.25 0.25 0.25 0.25 0.50 0.50 0.0 0.0 0.25 0.25 0.25 0.25 0.50 0.50 
0.0 0.50 0.0 0.50 0.50 1.0 0.50 1.0 0.50 1.0 0.50 1.0 0.0 0.25 0.0 0.25 0.0 0.25 0.0 0.25 0.25 0.50 0.25 0.50 0.25 0.50 0.25 0.50 
0 0 0 0 0 0 0 0 0 0 0 0 0 0 0 0 0 0 0 0 0 0 0 0 0 0 0 0 

cells 7
quad 4
  1 3 4 2
quad 4
  5 7 8 6
quad 4
  9 11 12 10
quad 4
  13 15 16 14
quad 4
  17 19 20 18
quad 4
  21 23 24 22
quad 4
  25 27 28 26

variable
node_data 1
0.0 2.0 1.0 3.0 4.0 5.0 2.0 6.0 2.0 6.0 3.0 7.0 8.0 10. 9.0 11. 9.0 11. 0.0 12. 10. 4.0 11. 13. 11. 13. 12. 2.0 

cell_data 1
0.0 0.0 0.0 0.0 1.0 1.0 1.0 1.0 2.0 2.0 2.0 2.0 3.0 3.0 3.0 3.0 4.0 4.0 4.0 4.0 5.0 5.0 5.0 5.0 6.0 6.0 6.0 6.0 

endvars
endgmv
# This file was generated by the deal.II library.


#
# For a description of the Tecplot format see the Tecplot documentation.
#
Variables="x", "y", "node_data", "cell_data"
zone f=feblock, n=28, e=7, et=quadrilateral
0.50
0.50
1.0
1.0
0.0
0.0
0.50
0.50
0.50
0.50
1.0
1.0
0.0
0.0
0.25
0.25
0.25
0.25
0.50
0.50
0.0
0.0
0.25
0.25
0.25
0.25
0.50
0.50

0.0
0.50
0.0
0.50
0.50
1.0
0.50
1.0
0.50
1.0
0.50
1.0
0.0
0.25
0.0
0.25
0.0
0.25
0.0
0.25
0.25
0.50
0.25
0.50
0.25
0.50
0.25
0.50

0.0
2.0
1.0
3.0
4.0
5.0
2.0
6.0
2.0
6.0
3.0
7.0
8.0
10.
9.0
11.
9.0
11.
0.0
12.
10.
4.0
11.
13.
11.
13.
12.
2.0

0.0
0.0
0.0
0.0
1.0
1.0
1.0
1.0
2.0
2.0
2.0
2.0
3.0
3.0
3.0
3.0
4.0
4.0
4.0
4.0
5.0
5.0
5.0
5.0
6.0
6.0
6.0
6.0

1 3 4 2
5 7 8 6
9 11 12 10
13 15 16 14
17 19 20 18
21 23 24 22
25 27 28 26
# vtk DataFile Version 3.0
This file was generated 
ASCII
DATASET UNSTRUCTURED_GRID
POINTS 28 double
0.50 0.0 0
0.50 0.50 0
1.0 0.0 0
1.0 0.50 0
0.0 0.50 0
0.0 1.0 0
0.50 0.50 0
0.50 1.0 0
0.50 0.50 0
0.50 1.0 0
1.0 0.50 0
1.0 1.0 0
0.0 0.0 0
0.0 0.25 0
0.25 0.0 0
0.25 0.25 0
0.25 0.0 0
0.25 0.25 0
0.50 0.0 0
0.50 0.25 0
0.0 0.25 0
0.0 0.50 0
0.25 0.25 0
0.25 0.50 0
0.25 0.25 0
0.25 0.50 0
0.50 0.25 0
0.50 0.50 0
CELLS 7 35
4 0 2 3 1
4 4 6 7 5
4 8 10 11 9
4 12 14 15 13
4 16 18 19 17
4 20 22 23 21
4 24 26 27 25
CELL_TYPES 7
9
9
9
9
9
9
9
POINT_DATA 28
SCALARS node_data double 1
LOOKUP_TABLE default
0.0 2.0 1.0 3.0 4.0 5.0 2.0 6.0 2.0 6.0 3.0 7.0 8.0 10. 9.0 11. 9.0 11. 0.0 12. 10. 4.0 11. 13. 11. 13. 12. 2.0 
SCALARS cell_data double 1
LOOKUP_TABLE default
0.0 0.0 0.0 0.0 1.0 1.0 1.0 1.0 2.0 2.0 2.0 2.0 3.0 3.0 3.0 3.0 4.0 4.0 4.0 4.0 5.0 5.0 5.0 5.0 6.0 6.0 6.0 6.0 
# This file was generated by the deal.II library.


#
# For a description of the GNUPLOT format see the GNUPLOT manual.
#
# <x> <y> <node_data> <cell_data> 
0.50 0.0 0.0 0.0 
0.50 0.50 2.0 0.0 

1.0 0.0 1.0 0.0 
1.0 0.50 3.0 0.0 


0.0 0.50 4.0 1.0 
0.0 1.0 5.0 1.0 

0.50 0.50 2.0 1.0 
0.50 1.0 6.0 1.0 


0.50 0.50 2.0 2.0 
0.50 1.0 6.0 2.0 

1.0 0.50 3.0 2.0 
1.0 1.0 7.0 2.0 


0.0 0.0 8.0 3.0 
0.0 0.25 10. 3.0 

0.25 0.0 9.0 3.0 
0.25 0.25 11. 3.0 


0.25 0.0 9.0 4.0 
0.25 0.25 11. 4.0 

0.50 0.0 0.0 4.0 
0.50 0.25 12. 4.0 


0.0 0.25 10. 5.0 
0.0 0.50 4.0 5.0 

0.25 0.25 11. 5.0 
0.25 0.50 13. 5.0 


0.25 0.25 11. 6.0 
0.25 0.50 13. 6.0 

0.50 0.25 12. 6.0 
0.50 0.50 2.0 6.0 


2 2
[deal.II intermediate format graphics data]
[written by deal.II 5.3.pre]
2
node_data
cell_data
7
[deal.II intermediate Patch<2,2>]
0.50 0.0 1.0 0.0 1.0 0.50 0.50 0.50 
4294967295 4294967295 4294967295 2 
0 1
2 4
0.0 2.0 1.0 3.0 0.0 0.0 0.0 0.0 


[deal.II intermediate Patch<2,2>]
0.0 0.50 0.50 0.50 0.50 1.0 0.0 1.0 
4294967295 2 4294967295 4294967295 
1 1
2 4
4.0 5.0 2.0 6.0 1.0 1.0 1.0 1.0 


[deal.II intermediate Patch<2,2>]
0.50 0.50 1.0 0.50 1.0 1.0 0.50 1.0 
1 4294967295 0 4294967295 
2 1
2 4
2.0 6.0 3.0 7.0 2.0 2.0 2.0 2.0 


[deal.II intermediate Patch<2,2>]
0.0 0.0 0.25 0.0 0.25 0.25 0.0 0.25 
4294967295 4 4294967295 5 
3 1
2 4
8.0 10. 9.0 11. 3.0 3.0 3.0 3.0 


[deal.II intermediate Patch<2,2>]
0.25 0.0 0.50 0.0 0.50 0.25 0.25 0.25 
3 4294967295 4294967295 6 
4 1
2 4
9.0 11. 0.0 12. 4.0 4.0 4.0 4.0 


[deal.II intermediate Patch<2,2>]
0.0 0.25 0.25 0.25 0.25 0.50 0.0 0.50 
4294967295 6 3 4294967295 
5 1
2 4
10. 4.0 11. 13. 5.0 5.0 5.0 5.0 


[deal.II intermediate Patch<2,2>]
0.25 0.25 0.50 0.25 0.50 0.50 0.25 0.50 
5 4294967295 4 4294967295 
6 1
2 4
11. 13. 12. 2.0 6.0 6.0 6.0 6.0 



/* This file was generated by the deal.II library.



   For a description of the POVRAY format see the POVRAY manual.
*/ 
#include "colors.inc" 
#include "textures.inc" 


camera {
  location <1,4,-7>
  look_at <0,0,0>
  angle 30
}

light_source {
  <1,4,-7>
  color Grey
}

light_source {
  <0,20,0>
  color White
}
#declare HMIN=0.0;
#declare HMAX=13.;

#declare Tex=texture{
  pigment {
    gradient y
    scale y*(HMAX-HMIN)*0.10
    color_map {
      [0.00 color Light_Purple] 
      [0.95 color Light_Purple] 
      [1.00 color White]    
} } }


mesh {
triangle {
	<0.50,0.0,0.0>,
	<1.0,1.0,0.0>,
	<1.0,3.0,0.50>}
triangle {
	<0.50,0.0,0.0>,
	<1.0,3.0,0.50>,
	<0.50,2.0,0.50>}
triangle {
	<0.0,4.0,0.50>,
	<0.50,2.0,0.50>,
	<0.50,6.0,1.0>}
triangle {
	<0.0,4.0,0.50>,
	<0.50,6.0,1.0>,
	<0.0,5.0,1.0>}
triangle {
	<0.50,2.0,0.50>,
	<1.0,3.0,0.50>,
	<1.0,7.0,1.0>}
triangle {
	<0.50,2.0,0.50>,
	<1.0,7.0,1.0>,
	<0.50,6.0,1.0>}
triangle {
	<0.0,8.0,0.0>,
	<0.25,9.0,0.0>,
	<0.25,11.,0.25>}
triangle {
	<0.0,8.0,0.0>,
	<0.25,11.,0.25>,
	<0.0,10.,0.25>}
triangle {
	<0.25,9.0,0.0>,
	<0.50,0.0,0.0>,
	<0.50,12.,0.25>}
triangle {
	<0.25,9.0,0.0>,
	<0.50,12.,0.25>,
	<0.25,11.,0.25>}
triangle {
	<0.0,10.,0.25>,
	<0.25,11.,0.25>,
	<0.25,13.,0.50>}
triangle {
	<0.0,10.,0.25>,
	<0.25,13.,0.50>,
	<0.0,4.0,0.50>}
triangle {
	<0.25,11.,0.25>,
	<0.50,12.,0.25>,
	<0.50,2.0,0.50>}
triangle {
	<0.25,11.,0.25>,
	<0.50,2.0,0.50>,
	<0.25,13.,0.50>}
  texture {Tex}
}

%!PS-Adobe-2.0 EPSF-1.2
%%Title: deal.II Output
%%Creator: the deal.II library

%%BoundingBox: 0 0 300 2534
/m {moveto} bind def
/l {lineto} bind def
/s {setrgbcolor} bind def
/sg {setgray} bind def
/lx {lineto closepath stroke} bind def
/lf {lineto closepath fill} bind def
%%EndProlog

0.50 setlinewidth
0.0000 sg 95.096 0.0000 m 190.19 162.74 l 245.10 590.67 l 150.00 427.93 lf
0 sg 95.096 0.0000 m 190.19 162.74 l 245.10 590.67 l 150.00 427.93 lx
0.0000 0.37500 0.62500 s 54.904 835.77 m 150.00 427.93 l 204.90 1236.3 l 109.81 1073.5 lf
0 sg 54.904 835.77 m 150.00 427.93 l 204.90 1236.3 l 109.81 1073.5 lx
0.0000 0.50000 0.50000 s 150.00 427.93 m 245.10 590.67 l 300.00 1399.0 l 204.90 1236.3 lf
0 sg 150.00 427.93 m 245.10 590.67 l 300.00 1399.0 l 204.90 1236.3 lx
1.0000 0.25000 0.25000 s 47.548 1725.5 m 95.096 0.0000 l 122.55 2306.1 l 75.000 2129.6 lf
0 sg 47.548 1725.5 m 95.096 0.0000 l 122.55 2306.1 l 75.000 2129.6 lx
1.0000 sg 27.452 1953.1 m 75.000 2129.6 l 102.45 2533.8 l 54.904 835.77 lf
0 sg 27.452 1953.1 m 75.000 2129.6 l 102.45 2533.8 l 54.904 835.77 lx
1.0000 sg 75.000 2129.6 m 122.55 2306.1 l 150.00 427.93 l 102.45 2533.8 lf
0 sg 75.000 2129.6 m 122.55 2306.1 l 150.00 427.93 l 102.45 2533.8 lx
1.0000 sg 0.0000 1549.0 m 47.548 1725.5 l 75.000 2129.6 l 27.452 1953.1 lf
0 sg 0.0000 1549.0 m 47.548 1725.5 l 75.000 2129.6 l 27.452 1953.1 lx
showpage
DEAL::Checking Q1 in 3d:
object "vertices" class array type float rank 1 shape 3 items 120 data follows
0.50000	0.0000	0.0000	
0.50000	0.0000	0.50000	
0.50000	0.50000	0.0000	
0.50000	0.50000	0.50000	
1.0000	0.0000	0.0000	
1.0000	0.0000	0.50000	
1.0000	0.50000	0.0000	
1.0000	0.50000	0.50000	
0.0000	0.50000	0.0000	
0.0000	0.50000	0.50000	
0.0000	1.0000	0.0000	
0.0000	1.0000	0.50000	
0.50000	0.50000	0.0000	
0.50000	0.50000	0.50000	
0.50000	1.0000	0.0000	
0.50000	1.0000	0.50000	
0.50000	0.50000	0.0000	
0.50000	0.50000	0.50000	
0.50000	1.0000	0.0000	
0.50000	1.0000	0.50000	
1.0000	0.50000	0.0000	
1.0000	0.50000	0.50000	
1.0000	1.0000	0.0000	
1.0000	1.0000	0.50000	
0.0000	0.0000	0.50000	
0.0000	0.0000	1.0000	
0.0000	0.50000	0.50000	
0.0000	0.50000	1.0000	
0.50000	0.0000	0.50000	
0.50000	0.0000	1.0000	
0.50000	0.50000	0.50000	
0.50000	0.50000	1.0000	
0.50000	0.0000	0.50000	
0.50000	0.0000	1.0000	
0.50000	0.50000	0.50000	
0.50000	0.50000	1.0000	
1.0000	0.0000	0.50000	
1.0000	0.0000	1.0000	
1.0000	0.50000	0.50000	
1.0000	0.50000	1.0000	
0.0000	0.50000	0.50000	
0.0000	0.50000	1.0000	
0.0000	1.0000	0.50000	
0.0000	1.0000	1.0000	
0.50000	0.50000	0.50000	
0.50000	0.50000	1.0000	
0.50000	1.0000	0.50000	
0.50000	1.0000	1.0000	
0.50000	0.50000	0.50000	
0.50000	0.50000	1.0000	
0.50000	1.0000	0.50000	
0.50000	1.0000	1.0000	
1.0000	0.50000	0.50000	
1.0000	0.50000	1.0000	
1.0000	1.0000	0.50000	
1.0000	1.0000	1.0000	
0.0000	0.0000	0.0000	
0.0000	0.0000	0.25000	
0.0000	0.25000	0.0000	
0.0000	0.25000	0.25000	
0.25000	0.0000	0.0000	
0.25000	0.0000	0.25000	
0.25000	0.25000	0.0000	
0.25000	0.25000	0.25000	
0.25000	0.0000	0.0000	
0.25000	0.0000	0.25000	
0.25000	0.25000	0.0000	
0.25000	0.25000	0.25000	
0.50000	0.0000	0.0000	
0.50000	0.0000	0.25000	
0.50000	0.25000	0.0000	
0.50000	0.25000	0.25000	
0.0000	0.25000	0.0000	
0.0000	0.25000	0.25000	
0.0000	0.50000	0.0000	
0.0000	0.50000	0.25000	
0.25000	0.25000	0.0000	
0.25000	0.25000	0.25000	
0.25000	0.50000	0.0000	
0.25000	0.50000	0.25000	
0.25000	0.25000	0.0000	
0.25000	0.25000	0.25000	
0.25000	0.50000	0.0000	
0.25000	0.50000	0.25000	
0.50000	0.25000	0.0000	
0.50000	0.25000	0.25000	
0.50000	0.50000	0.0000	
0.50000	0.50000	0.25000	
0.0000	0.0000	0.25000	
0.0000	0.0000	0.50000	
0.0000	0.25000	0.25000	
0.0000	0.25000	0.50000	
0.25000	0.0000	0.25000	
0.25000	0.0000	0.50000	
0.25000	0.25000	0.25000	
0.25000	0.25000	0.50000	
0.25000	0.0000	0.25000	
0.25000	0.0000	0.50000	
0.25000	0.25000	0.25000	
0.25000	0.25000	0.50000	
0.50000	0.0000	0.25000	
0.50000	0.0000	0.50000	
0.50000	0.25000	0.25000	
0.50000	0.25000	0.50000	
0.0000	0.25000	0.25000	
0.0000	0.25000	0.50000	
0.0000	0.50000	0.25000	
0.0000	0.50000	0.50000	
0.25000	0.25000	0.25000	
0.25000	0.25000	0.50000	
0.25000	0.50000	0.25000	
0.25000	0.50000	0.50000	
0.25000	0.25000	0.25000	
0.25000	0.25000	0.50000	
0.25000	0.50000	0.25000	
0.25000	0.50000	0.50000	
0.50000	0.25000	0.25000	
0.50000	0.25000	0.50000	
0.50000	0.50000	0.25000	
0.50000	0.50000	0.50000	
object "cells" class array type int rank 1 shape 8 items 15 data follows
0	1	2	3	4	5	6	7	
8	9	10	11	12	13	14	15	
16	17	18	19	20	21	22	23	
24	25	26	27	28	29	30	31	
32	33	34	35	36	37	38	39	
40	41	42	43	44	45	46	47	
48	49	50	51	52	53	54	55	
56	57	58	59	60	61	62	63	
64	65	66	67	68	69	70	71	
72	73	74	75	76	77	78	79	
80	81	82	83	84	85	86	87	
88	89	90	91	92	93	94	95	
96	97	98	99	100	101	102	103	
104	105	106	107	108	109	110	111	
112	113	114	115	116	117	118	119	

attribute "element type" string "cubes"
attribute "ref" string "positions"
object "data" class array type float rank 1 shape 2 items 120 data follows
0.0000	0.0000	
4.0000	0.0000	
2.0000	0.0000	
6.0000	0.0000	
1.0000	0.0000	
5.0000	0.0000	
3.0000	0.0000	
7.0000	0.0000	
8.0000	1.0000	
11.000	1.0000	
9.0000	1.0000	
12.000	1.0000	
2.0000	1.0000	
6.0000	1.0000	
10.000	1.0000	
13.000	1.0000	
2.0000	2.0000	
6.0000	2.0000	
10.000	2.0000	
13.000	2.0000	
3.0000	2.0000	
7.0000	2.0000	
14.000	2.0000	
15.000	2.0000	
16.000	3.0000	
17.000	3.0000	
11.000	3.0000	
19.000	3.0000	
4.0000	3.0000	
18.000	3.0000	
6.0000	3.0000	
20.000	3.0000	
4.0000	4.0000	
18.000	4.0000	
6.0000	4.0000	
20.000	4.0000	
5.0000	4.0000	
21.000	4.0000	
7.0000	4.0000	
22.000	4.0000	
11.000	5.0000	
19.000	5.0000	
12.000	5.0000	
23.000	5.0000	
6.0000	5.0000	
20.000	5.0000	
13.000	5.0000	
24.000	5.0000	
6.0000	6.0000	
20.000	6.0000	
13.000	6.0000	
24.000	6.0000	
7.0000	6.0000	
22.000	6.0000	
15.000	6.0000	
25.000	6.0000	
26.000	7.0000	
30.000	7.0000	
28.000	7.0000	
32.000	7.0000	
27.000	7.0000	
31.000	7.0000	
29.000	7.0000	
33.000	7.0000	
27.000	8.0000	
31.000	8.0000	
29.000	8.0000	
33.000	8.0000	
0.0000	8.0000	
35.000	8.0000	
34.000	8.0000	
36.000	8.0000	
28.000	9.0000	
32.000	9.0000	
8.0000	9.0000	
38.000	9.0000	
29.000	9.0000	
33.000	9.0000	
37.000	9.0000	
39.000	9.0000	
29.000	10.000	
33.000	10.000	
37.000	10.000	
39.000	10.000	
34.000	10.000	
36.000	10.000	
2.0000	10.000	
40.000	10.000	
30.000	11.000	
16.000	11.000	
32.000	11.000	
42.000	11.000	
31.000	11.000	
41.000	11.000	
33.000	11.000	
43.000	11.000	
31.000	12.000	
41.000	12.000	
33.000	12.000	
43.000	12.000	
35.000	12.000	
4.0000	12.000	
36.000	12.000	
44.000	12.000	
32.000	13.000	
42.000	13.000	
38.000	13.000	
11.000	13.000	
33.000	13.000	
43.000	13.000	
39.000	13.000	
45.000	13.000	
33.000	14.000	
43.000	14.000	
39.000	14.000	
45.000	14.000	
36.000	14.000	
44.000	14.000	
40.000	14.000	
6.0000	14.000	
attribute "dep" string "positions"
object "deal data" class field
component "positions" value "vertices"
component "connections" value "cells"
component "data" value "data"
attribute 
end
# This file was generated by the deal.II library.


#
# For a description of the UCD format see the AVS Developer's guide.
#
120 15 2 0 0
1   0.50000 0.0000 0.0000 
2   0.50000 0.0000 0.50000 
3   0.50000 0.50000 0.0000 
4   0.50000 0.50000 0.50000 
5   1.0000 0.0000 0.0000 
6   1.0000 0.0000 0.50000 
7   1.0000 0.50000 0.0000 
8   1.0000 0.50000 0.50000 
9   0.0000 0.50000 0.0000 
10   0.0000 0.50000 0.50000 
11   0.0000 1.0000 0.0000 
12   0.0000 1.0000 0.50000 
13   0.50000 0.50000 0.0000 
14   0.50000 0.50000 0.50000 
15   0.50000 1.0000 0.0000 
16   0.50000 1.0000 0.50000 
17   0.50000 0.50000 0.0000 
18   0.50000 0.50000 0.50000 
19   0.50000 1.0000 0.0000 
20   0.50000 1.0000 0.50000 
21   1.0000 0.50000 0.0000 
22   1.0000 0.50000 0.50000 
23   1.0000 1.0000 0.0000 
24   1.0000 1.0000 0.50000 
25   0.0000 0.0000 0.50000 
26   0.0000 0.0000 1.0000 
27   0.0000 0.50000 0.50000 
28   0.0000 0.50000 1.0000 
29   0.50000 0.0000 0.50000 
30   0.50000 0.0000 1.0000 
31   0.50000 0.50000 0.50000 
32   0.50000 0.50000 1.0000 
33   0.50000 0.0000 0.50000 
34   0.50000 0.0000 1.0000 
35   0.50000 0.50000 0.50000 
36   0.50000 0.50000 1.0000 
37   1.0000 0.0000 0.50000 
38   1.0000 0.0000 1.0000 
39   1.0000 0.50000 0.50000 
40   1.0000 0.50000 1.0000 
41   0.0000 0.50000 0.50000 
42   0.0000 0.50000 1.0000 
43   0.0000 1.0000 0.50000 
44   0.0000 1.0000 1.0000 
45   0.50000 0.50000 0.50000 
46   0.50000 0.50000 1.0000 
47   0.50000 1.0000 0.50000 
48   0.50000 1.0000 1.0000 
49   0.50000 0.50000 0.50000 
50   0.50000 0.50000 1.0000 
51   0.50000 1.0000 0.50000 
52   0.50000 1.0000 1.0000 
53   1.0000 0.50000 0.50000 
54   1.0000 0.50000 1.0000 
55   1.0000 1.0000 0.50000 
56   1.0000 1.0000 1.0000 
57   0.0000 0.0000 0.0000 
58   0.0000 0.0000 0.25000 
59   0.0000 0.25000 0.0000 
60   0.0000 0.25000 0.25000 
61   0.25000 0.0000 0.0000 
62   0.25000 0.0000 0.25000 
63   0.25000 0.25000 0.0000 
64   0.25000 0.25000 0.25000 
65   0.25000 0.0000 0.0000 
66   0.25000 0.0000 0.25000 
67   0.25000 0.25000 0.0000 
68   0.25000 0.25000 0.25000 
69   0.50000 0.0000 0.0000 
70   0.50000 0.0000 0.25000 
71   0.50000 0.25000 0.0000 
72   0.50000 0.25000 0.25000 
73   0.0000 0.25000 0.0000 
74   0.0000 0.25000 0.25000 
75   0.0000 0.50000 0.0000 
76   0.0000 0.50000 0.25000 
77   0.25000 0.25000 0.0000 
78   0.25000 0.25000 0.25000 
79   0.25000 0.50000 0.0000 
80   0.25000 0.50000 0.25000 
81   0.25000 0.25000 0.0000 
82   0.25000 0.25000 0.25000 
83   0.25000 0.50000 0.0000 
84   0.25000 0.50000 0.25000 
85   0.50000 0.25000 0.0000 
86   0.50000 0.25000 0.25000 
87   0.50000 0.50000 0.0000 
88   0.50000 0.50000 0.25000 
89   0.0000 0.0000 0.25000 
90   0.0000 0.0000 0.50000 
91   0.0000 0.25000 0.25000 
92   0.0000 0.25000 0.50000 
93   0.25000 0.0000 0.25000 
94   0.25000 0.0000 0.50000 
95   0.25000 0.25000 0.25000 
96   0.25000 0.25000 0.50000 
97   0.25000 0.0000 0.25000 
98   0.25000 0.0000 0.50000 
99   0.25000 0.25000 0.25000 
100   0.25000 0.25000 0.50000 
101   0.50000 0.0000 0.25000 
102   0.50000 0.0000 0.50000 
103   0.50000 0.25000 0.25000 
104   0.50000 0.25000 0.50000 
105   0.0000 0.25000 0.25000 
106   0.0000 0.25000 0.50000 
107   0.0000 0.50000 0.25000 
108   0.0000 0.50000 0.50000 
109   0.25000 0.25000 0.25000 
110   0.25000 0.25000 0.50000 
111   0.25000 0.50000 0.25000 
112   0.25000 0.50000 0.50000 
113   0.25000 0.25000 0.25000 
114   0.25000 0.25000 0.50000 
115   0.25000 0.50000 0.25000 
116   0.25000 0.50000 0.50000 
117   0.50000 0.25000 0.25000 
118   0.50000 0.25000 0.50000 
119   0.50000 0.50000 0.25000 
120   0.50000 0.50000 0.50000 
1 0  hex  1 5 7 3 2 6 8 4 
2 0  hex  9 13 15 11 10 14 16 12 
3 0  hex  17 21 23 19 18 22 24 20 
4 0  hex  25 29 31 27 26 30 32 28 
5 0  hex  33 37 39 35 34 38 40 36 
6 0  hex  41 45 47 43 42 46 48 44 
7 0  hex  49 53 55 51 50 54 56 52 
8 0  hex  57 61 63 59 58 62 64 60 
9 0  hex  65 69 71 67 66 70 72 68 
10 0  hex  73 77 79 75 74 78 80 76 
11 0  hex  81 85 87 83 82 86 88 84 
12 0  hex  89 93 95 91 90 94 96 92 
13 0  hex  97 101 103 99 98 102 104 100 
14 0  hex  105 109 111 107 106 110 112 108 
15 0  hex  113 117 119 115 114 118 120 116 

2    1 1 
node_data,dimensionless
cell_data,dimensionless
1  0.0000 0.0000 
2  4.0000 0.0000 
3  2.0000 0.0000 
4  6.0000 0.0000 
5  1.0000 0.0000 
6  5.0000 0.0000 
7  3.0000 0.0000 
8  7.0000 0.0000 
9  8.0000 1.0000 
10  11.000 1.0000 
11  9.0000 1.0000 
12  12.000 1.0000 
13  2.0000 1.0000 
14  6.0000 1.0000 
15  10.000 1.0000 
16  13.000 1.0000 
17  2.0000 2.0000 
18  6.0000 2.0000 
19  10.000 2.0000 
20  13.000 2.0000 
21  3.0000 2.0000 
22  7.0000 2.0000 
23  14.000 2.0000 
24  15.000 2.0000 
25  16.000 3.0000 
26  17.000 3.0000 
27  11.000 3.0000 
28  19.000 3.0000 
29  4.0000 3.0000 
30  18.000 3.0000 
31  6.0000 3.0000 
32  20.000 3.0000 
33  4.0000 4.0000 
34  18.000 4.0000 
35  6.0000 4.0000 
36  20.000 4.0000 
37  5.0000 4.0000 
38  21.000 4.0000 
39  7.0000 4.0000 
40  22.000 4.0000 
41  11.000 5.0000 
42  19.000 5.0000 
43  12.000 5.0000 
44  23.000 5.0000 
45  6.0000 5.0000 
46  20.000 5.0000 
47  13.000 5.0000 
48  24.000 5.0000 
49  6.0000 6.0000 
50  20.000 6.0000 
51  13.000 6.0000 
52  24.000 6.0000 
53  7.0000 6.0000 
54  22.000 6.0000 
55  15.000 6.0000 
56  25.000 6.0000 
57  26.000 7.0000 
58  30.000 7.0000 
59  28.000 7.0000 
60  32.000 7.0000 
61  27.000 7.0000 
62  31.000 7.0000 
63  29.000 7.0000 
64  33.000 7.0000 
65  27.000 8.0000 
66  31.000 8.0000 
67  29.000 8.0000 
68  33.000 8.0000 
69  0.0000 8.0000 
70  35.000 8.0000 
71  34.000 8.0000 
72  36.000 8.0000 
73  28.000 9.0000 
74  32.000 9.0000 
75  8.0000 9.0000 
76  38.000 9.0000 
77  29.000 9.0000 
78  33.000 9.0000 
79  37.000 9.0000 
80  39.000 9.0000 
81  29.000 10.000 
82  33.000 10.000 
83  37.000 10.000 
84  39.000 10.000 
85  34.000 10.000 
86  36.000 10.000 
87  2.0000 10.000 
88  40.000 10.000 
89  30.000 11.000 
90  16.000 11.000 
91  32.000 11.000 
92  42.000 11.000 
93  31.000 11.000 
94  41.000 11.000 
95  33.000 11.000 
96  43.000 11.000 
97  31.000 12.000 
98  41.000 12.000 
99  33.000 12.000 
100  43.000 12.000 
101  35.000 12.000 
102  4.0000 12.000 
103  36.000 12.000 
104  44.000 12.000 
105  32.000 13.000 
106  42.000 13.000 
107  38.000 13.000 
108  11.000 13.000 
109  33.000 13.000 
110  43.000 13.000 
111  39.000 13.000 
112  45.000 13.000 
113  33.000 14.000 
114  43.000 14.000 
115  39.000 14.000 
116  45.000 14.000 
117  36.000 14.000 
118  44.000 14.000 
119  40.000 14.000 
120  6.0000 14.000 
gmvinput ascii

nodes 120
0.50000 0.50000 0.50000 0.50000 1.0000 1.0000 1.0000 1.0000 0.0000 0.0000 0.0000 0.0000 0.50000 0.50000 0.50000 0.50000 0.50000 0.50000 0.50000 0.50000 1.0000 1.0000 1.0000 1.0000 0.0000 0.0000 0.0000 0.0000 0.50000 0.50000 0.50000 0.50000 0.50000 0.50000 0.50000 0.50000 1.0000 1.0000 1.0000 1.0000 0.0000 0.0000 0.0000 0.0000 0.50000 0.50000 0.50000 0.50000 0.50000 0.50000 0.50000 0.50000 1.0000 1.0000 1.0000 1.0000 0.0000 0.0000 0.0000 0.0000 0.25000 0.25000 0.25000 0.25000 0.25000 0.25000 0.25000 0.25000 0.50000 0.50000 0.50000 0.50000 0.0000 0.0000 0.0000 0.0000 0.25000 0.25000 0.25000 0.25000 0.25000 0.25000 0.25000 0.25000 0.50000 0.50000 0.50000 0.50000 0.0000 0.0000 0.0000 0.0000 0.25000 0.25000 0.25000 0.25000 0.25000 0.25000 0.25000 0.25000 0.50000 0.50000 0.50000 0.50000 0.0000 0.0000 0.0000 0.0000 0.25000 0.25000 0.25000 0.25000 0.25000 0.25000 0.25000 0.25000 0.50000 0.50000 0.50000 0.50000 
0.0000 0.0000 0.50000 0.50000 0.0000 0.0000 0.50000 0.50000 0.50000 0.50000 1.0000 1.0000 0.50000 0.50000 1.0000 1.0000 0.50000 0.50000 1.0000 1.0000 0.50000 0.50000 1.0000 1.0000 0.0000 0.0000 0.50000 0.50000 0.0000 0.0000 0.50000 0.50000 0.0000 0.0000 0.50000 0.50000 0.0000 0.0000 0.50000 0.50000 0.50000 0.50000 1.0000 1.0000 0.50000 0.50000 1.0000 1.0000 0.50000 0.50000 1.0000 1.0000 0.50000 0.50000 1.0000 1.0000 0.0000 0.0000 0.25000 0.25000 0.0000 0.0000 0.25000 0.25000 0.0000 0.0000 0.25000 0.25000 0.0000 0.0000 0.25000 0.25000 0.25000 0.25000 0.50000 0.50000 0.25000 0.25000 0.50000 0.50000 0.25000 0.25000 0.50000 0.50000 0.25000 0.25000 0.50000 0.50000 0.0000 0.0000 0.25000 0.25000 0.0000 0.0000 0.25000 0.25000 0.0000 0.0000 0.25000 0.25000 0.0000 0.0000 0.25000 0.25000 0.25000 0.25000 0.50000 0.50000 0.25000 0.25000 0.50000 0.50000 0.25000 0.25000 0.50000 0.50000 0.25000 0.25000 0.50000 0.50000 
0.0000 0.50000 0.0000 0.50000 0.0000 0.50000 0.0000 0.50000 0.0000 0.50000 0.0000 0.50000 0.0000 0.50000 0.0000 0.50000 0.0000 0.50000 0.0000 0.50000 0.0000 0.50000 0.0000 0.50000 0.50000 1.0000 0.50000 1.0000 0.50000 1.0000 0.50000 1.0000 0.50000 1.0000 0.50000 1.0000 0.50000 1.0000 0.50000 1.0000 0.50000 1.0000 0.50000 1.0000 0.50000 1.0000 0.50000 1.0000 0.50000 1.0000 0.50000 1.0000 0.50000 1.0000 0.50000 1.0000 0.0000 0.25000 0.0000 0.25000 0.0000 0.25000 0.0000 0.25000 0.0000 0.25000 0.0000 0.25000 0.0000 0.25000 0.0000 0.25000 0.0000 0.25000 0.0000 0.25000 0.0000 0.25000 0.0000 0.25000 0.0000 0.25000 0.0000 0.25000 0.0000 0.25000 0.0000 0.25000 0.25000 0.50000 0.25000 0.50000 0.25000 0.50000 0.25000 0.50000 0.25000 0.50000 0.25000 0.50000 0.25000 0.50000 0.25000 0.50000 0.25000 0.50000 0.25000 0.50000 0.25000 0.50000 0.25000 0.50000 0.25000 0.50000 0.25000 0.50000 0.25000 0.50000 0.25000 0.50000 

cells 15
hex 8
   1 5 7 3 2 6 8 4 
hex 8
   9 13 15 11 10 14 16 12 
hex 8
   17 21 23 19 18 22 24 20 
hex 8
   25 29 31 27 26 30 32 28 
hex 8
   33 37 39 35 34 38 40 36 
hex 8
   41 45 47 43 42 46 48 44 
hex 8
   49 53 55 51 50 54 56 52 
hex 8
   57 61 63 59 58 62 64 60 
hex 8
   65 69 71 67 66 70 72 68 
hex 8
   73 77 79 75 74 78 80 76 
hex 8
   81 85 87 83 82 86 88 84 
hex 8
   89 93 95 91 90 94 96 92 
hex 8
   97 101 103 99 98 102 104 100 
hex 8
   105 109 111 107 106 110 112 108 
hex 8
   113 117 119 115 114 118 120 116 

variable
node_data 1
0.0000 4.0000 2.0000 6.0000 1.0000 5.0000 3.0000 7.0000 8.0000 11.000 9.0000 12.000 2.0000 6.0000 10.000 13.000 2.0000 6.0000 10.000 13.000 3.0000 7.0000 14.000 15.000 16.000 17.000 11.000 19.000 4.0000 18.000 6.0000 20.000 4.0000 18.000 6.0000 20.000 5.0000 21.000 7.0000 22.000 11.000 19.000 12.000 23.000 6.0000 20.000 13.000 24.000 6.0000 20.000 13.000 24.000 7.0000 22.000 15.000 25.000 26.000 30.000 28.000 32.000 27.000 31.000 29.000 33.000 27.000 31.000 29.000 33.000 0.0000 35.000 34.000 36.000 28.000 32.000 8.0000 38.000 29.000 33.000 37.000 39.000 29.000 33.000 37.000 39.000 34.000 36.000 2.0000 40.000 30.000 16.000 32.000 42.000 31.000 41.000 33.000 43.000 31.000 41.000 33.000 43.000 35.000 4.0000 36.000 44.000 32.000 42.000 38.000 11.000 33.000 43.000 39.000 45.000 33.000 43.000 39.000 45.000 36.000 44.000 40.000 6.0000 

cell_data 1
0.0000 0.0000 0.0000 0.0000 0.0000 0.0000 0.0000 0.0000 1.0000 1.0000 1.0000 1.0000 1.0000 1.0000 1.0000 1.0000 2.0000 2.0000 2.0000 2.0000 2.0000 2.0000 2.0000 2.0000 3.0000 3.0000 3.0000 3.0000 3.0000 3.0000 3.0000 3.0000 4.0000 4.0000 4.0000 4.0000 4.0000 4.0000 4.0000 4.0000 5.0000 5.0000 5.0000 5.0000 5.0000 5.0000 5.0000 5.0000 6.0000 6.0000 6.0000 6.0000 6.0000 6.0000 6.0000 6.0000 7.0000 7.0000 7.0000 7.0000 7.0000 7.0000 7.0000 7.0000 8.0000 8.0000 8.0000 8.0000 8.0000 8.0000 8.0000 8.0000 9.0000 9.0000 9.0000 9.0000 9.0000 9.0000 9.0000 9.0000 10.000 10.000 10.000 10.000 10.000 10.000 10.000 10.000 11.000 11.000 11.000 11.000 11.000 11.000 11.000 11.000 12.000 12.000 12.000 12.000 12.000 12.000 12.000 12.000 13.000 13.000 13.000 13.000 13.000 13.000 13.000 13.000 14.000 14.000 14.000 14.000 14.000 14.000 14.000 14.000 

endvars
endgmv
# This file was generated by the deal.II library.


#
# For a description of the Tecplot format see the Tecplot documentation.
#
Variables="x", "y", "z", "node_data", "cell_data"
zone f=feblock, n=120, e=15, et=brick
0.50000
0.50000
0.50000
0.50000
1.0000
1.0000
1.0000
1.0000
0.0000
0.0000
0.0000
0.0000
0.50000
0.50000
0.50000
0.50000
0.50000
0.50000
0.50000
0.50000
1.0000
1.0000
1.0000
1.0000
0.0000
0.0000
0.0000
0.0000
0.50000
0.50000
0.50000
0.50000
0.50000
0.50000
0.50000
0.50000
1.0000
1.0000
1.0000
1.0000
0.0000
0.0000
0.0000
0.0000
0.50000
0.50000
0.50000
0.50000
0.50000
0.50000
0.50000
0.50000
1.0000
1.0000
1.0000
1.0000
0.0000
0.0000
0.0000
0.0000
0.25000
0.25000
0.25000
0.25000
0.25000
0.25000
0.25000
0.25000
0.50000
0.50000
0.50000
0.50000
0.0000
0.0000
0.0000
0.0000
0.25000
0.25000
0.25000
0.25000
0.25000
0.25000
0.25000
0.25000
0.50000
0.50000
0.50000
0.50000
0.0000
0.0000
0.0000
0.0000
0.25000
0.25000
0.25000
0.25000
0.25000
0.25000
0.25000
0.25000
0.50000
0.50000
0.50000
0.50000
0.0000
0.0000
0.0000
0.0000