
DEAL:3d::Refining cell 7
DEAL:3d::Checksum: 1061879988
<?xml version="1.0"?>
<VTKFile type="PUnstructuredGrid" version="0.1" byte_order="LittleEndian">
  <PUnstructuredGrid GhostLevel="0">
    <PPoints>
      <PDataArray type="Float32" Name="Position" NumberOfComponents="3" format="ascii"/>
    </PPoints>
    <PCellData Scalars="mpirank,treeid">
      <PDataArray type="Int32" Name="mpirank" format="ascii"/>
      <PDataArray type="Int32" Name="treeid" format="ascii"/>
    </PCellData>
    <PPointData>
    </PPointData>
    <Piece Source="1_0000.vtu"/>
  </PUnstructuredGrid>
</VTKFile>

<?xml version="1.0"?>
<VTKFile type="UnstructuredGrid" version="0.1" byte_order="LittleEndian">
  <UnstructuredGrid>
    <Piece NumberOfPoints="120" NumberOfCells="15">
      <Points>
        <DataArray type="Float32" Name="Position" NumberOfComponents="3" format="ascii">
            1.25000002e-02   1.25000002e-02   1.25000002e-02
            4.87500012e-01   1.25000002e-02   1.25000002e-02
            1.25000002e-02   4.87500012e-01   1.25000002e-02
            4.87500012e-01   4.87500012e-01   1.25000002e-02
            1.25000002e-02   1.25000002e-02   4.87500012e-01
            4.87500012e-01   1.25000002e-02   4.87500012e-01
            1.25000002e-02   4.87500012e-01   4.87500012e-01
            4.87500012e-01   4.87500012e-01   4.87500012e-01
            5.12499988e-01   1.25000002e-02   1.25000002e-02
            9.87500012e-01   1.25000002e-02   1.25000002e-02
            5.12499988e-01   4.87500012e-01   1.25000002e-02
            9.87500012e-01   4.87500012e-01   1.25000002e-02
            5.12499988e-01   1.25000002e-02   4.87500012e-01
            9.87500012e-01   1.25000002e-02   4.87500012e-01
            5.12499988e-01   4.87500012e-01   4.87500012e-01
            9.87500012e-01   4.87500012e-01   4.87500012e-01
            1.25000002e-02   5.12499988e-01   1.25000002e-02
            4.87500012e-01   5.12499988e-01   1.25000002e-02
            1.25000002e-02   9.87500012e-01   1.25000002e-02
            4.87500012e-01   9.87500012e-01   1.25000002e-02
            1.25000002e-02   5.12499988e-01   4.87500012e-01
            4.87500012e-01   5.12499988e-01   4.87500012e-01
            1.25000002e-02   9.87500012e-01   4.87500012e-01
            4.87500012e-01   9.87500012e-01   4.87500012e-01
            5.12499988e-01   5.12499988e-01   1.25000002e-02
            9.87500012e-01   5.12499988e-01   1.25000002e-02
            5.12499988e-01   9.87500012e-01   1.25000002e-02
            9.87500012e-01   9.87500012e-01   1.25000002e-02
            5.12499988e-01   5.12499988e-01   4.87500012e-01
            9.87500012e-01   5.12499988e-01   4.87500012e-01
            5.12499988e-01   9.87500012e-01   4.87500012e-01
            9.87500012e-01   9.87500012e-01   4.87500012e-01
            1.25000002e-02   1.25000002e-02   5.12499988e-01
            4.87500012e-01   1.25000002e-02   5.12499988e-01
            1.25000002e-02   4.87500012e-01   5.12499988e-01
            4.87500012e-01   4.87500012e-01   5.12499988e-01
            1.25000002e-02   1.25000002e-02   9.87500012e-01
            4.87500012e-01   1.25000002e-02   9.87500012e-01
            1.25000002e-02   4.87500012e-01   9.87500012e-01
            4.87500012e-01   4.87500012e-01   9.87500012e-01
            5.12499988e-01   1.25000002e-02   5.12499988e-01
            9.87500012e-01   1.25000002e-02   5.12499988e-01
            5.12499988e-01   4.87500012e-01   5.12499988e-01
            9.87500012e-01   4.87500012e-01   5.12499988e-01
            5.12499988e-01   1.25000002e-02   9.87500012e-01
            9.87500012e-01   1.25000002e-02   9.87500012e-01
            5.12499988e-01   4.87500012e-01   9.87500012e-01
            9.87500012e-01   4.87500012e-01   9.87500012e-01
            1.25000002e-02   5.12499988e-01   5.12499988e-01
            4.87500012e-01   5.12499988e-01   5.12499988e-01
            1.25000002e-02   9.87500012e-01   5.12499988e-01
            4.87500012e-01   9.87500012e-01   5.12499988e-01
            1.25000002e-02   5.12499988e-01   9.87500012e-01
            4.87500012e-01   5.12499988e-01   9.87500012e-01
            1.25000002e-02   9.87500012e-01   9.87500012e-01
            4.87500012e-01   9.87500012e-01   9.87500012e-01
            5.06250024e-01   5.06250024e-01   5.06250024e-01
            7.43749976e-01   5.06250024e-01   5.06250024e-01
            5.06250024e-01   7.43749976e-01   5.06250024e-01
            7.43749976e-01   7.43749976e-01   5.06250024e-01
            5.06250024e-01   5.06250024e-01   7.43749976e-01
            7.43749976e-01   5.06250024e-01   7.43749976e-01
            5.06250024e-01   7.43749976e-01   7.43749976e-01
            7.43749976e-01   7.43749976e-01   7.43749976e-01
            7.56250024e-01   5.06250024e-01   5.06250024e-01
            9.93749976e-01   5.06250024e-01   5.06250024e-01
            7.56250024e-01   7.43749976e-01   5.06250024e-01
            9.93749976e-01   7.43749976e-01   5.06250024e-01
            7.56250024e-01   5.06250024e-01   7.43749976e-01
            9.93749976e-01   5.06250024e-01   7.43749976e-01
            7.56250024e-01   7.43749976e-01   7.43749976e-01
            9.93749976e-01   7.43749976e-01   7.43749976e-01
            5.06250024e-01   7.56250024e-01   5.06250024e-01
            7.43749976e-01   7.56250024e-01   5.06250024e-01
            5.06250024e-01   9.93749976e-01   5.06250024e-01
            7.43749976e-01   9.93749976e-01   5.06250024e-01
            5.06250024e-01   7.56250024e-01   7.43749976e-01
            7.43749976e-01   7.56250024e-01   7.43749976e-01
            5.06250024e-01   9.93749976e-01   7.43749976e-01
            7.43749976e-01   9.93749976e-01   7.43749976e-01
            7.56250024e-01   7.56250024e-01   5.06250024e-01
            9.93749976e-01   7.56250024e-01   5.06250024e-01
            7.56250024e-01   9.93749976e-01   5.06250024e-01
            9.93749976e-01   9.93749976e-01   5.06250024e-01
            7.56250024e-01   7.56250024e-01   7.43749976e-01
            9.93749976e-01   7.56250024e-01   7.43749976e-01
            7.56250024e-01   9.93749976e-01   7.43749976e-01
            9.93749976e-01   9.93749976e-01   7.43749976e-01
            5.06250024e-01   5.06250024e-01   7.56250024e-01
            7.43749976e-01   5.06250024e-01   7.56250024e-01
            5.06250024e-01   7.43749976e-01   7.56250024e-01
            7.43749976e-01   7.43749976e-01   7.56250024e-01
            5.06250024e-01   5.06250024e-01   9.93749976e-01
            7.43749976e-01   5.06250024e-01   9.93749976e-01
            5.06250024e-01   7.43749976e-01   9.93749976e-01
            7.43749976e-01   7.43749976e-01   9.93749976e-01
            7.56250024e-01   5.06250024e-01   7.56250024e-01
            9.93749976e-01   5.06250024e-01   7.56250024e-01
            7.56250024e-01   7.43749976e-01   7.56250024e-01
            9.93749976e-01   7.43749976e-01   7.56250024e-01
            7.56250024e-01   5.06250024e-01   9.93749976e-01
            9.93749976e-01   5.06250024e-01   9.93749976e-01
            7.56250024e-01   7.43749976e-01   9.93749976e-01
            9.93749976e-01   7.43749976e-01   9.93749976e-01
            5.06250024e-01   7.56250024e-01   7.56250024e-01
            7.43749976e-01   7.56250024e-01   7.56250024e-01
            5.06250024e-01   9.93749976e-01   7.56250024e-01
            7.43749976e-01   9.93749976e-01   7.56250024e-01
            5.06250024e-01   7.56250024e-01   9.93749976e-01
            7.43749976e-01   7.56250024e-01   9.93749976e-01
            5.06250024e-01   9.93749976e-01   9.93749976e-01
            7.43749976e-01   9.93749976e-01   9.93749976e-01
            7.56250024e-01   7.56250024e-01   7.56250024e-01
            9.93749976e-01   7.56250024e-01   7.56250024e-01
            7.56250024e-01   9.93749976e-01   7.56250024e-01
            9.93749976e-01   9.93749976e-01   7.56250024e-01
            7.56250024e-01   7.56250024e-01   9.93749976e-01
            9.93749976e-01   7.56250024e-01   9.93749976e-01
            7.56250024e-01   9.93749976e-01   9.93749976e-01
            9.93749976e-01   9.93749976e-01   9.93749976e-01
        </DataArray>
      </Points>
      <Cells>
        <DataArray type="Int32" Name="connectivity" format="ascii">
          0 1 2 3 4 5 6 7
          8 9 10 11 12 13 14 15
          16 17 18 19 20 21 22 23
          24 25 26 27 28 29 30 31
          32 33 34 35 36 37 38 39
          40 41 42 43 44 45 46 47
          48 49 50 51 52 53 54 55
          56 57 58 59 60 61 62 63
          64 65 66 67 68 69 70 71
          72 73 74 75 76 77 78 79
          80 81 82 83 84 85 86 87
          88 89 90 91 92 93 94 95
          96 97 98 99 100 101 102 103
          104 105 106 107 108 109 110 111
          112 113 114 115 116 117 118 119
        </DataArray>
        <DataArray type="Int32" Name="offsets" format="ascii">
          8 16 24 32 40 48 56 64
          72 80 88 96 104 112 120
        </DataArray>
        <DataArray type="UInt8" Name="types" format="ascii">
          11 11 11 11 11 11 11 11 11 11 11 11 11 11 11
        </DataArray>
      </Cells>
      <CellData Scalars="mpirank,treeid">
        <DataArray type="Int32" Name="mpirank" format="ascii">
          0 0 0 0 0 0 0 0 0 0 0 0 0 0 0
        </DataArray>
        <DataArray type="Int32" Name="treeid" format="ascii">
          0 0 0 0 0 0 0 0 0 0 0 0 0 0 0
        </DataArray>
      </CellData>
      <PointData>
      </PointData>
    </Piece>
  </UnstructuredGrid>
</VTKFile>

DEAL:3d::
DEAL:3d::0 Number of cells: 15 15
DEAL:3d::Refining cell 1
DEAL:3d::Checksum: 2270560503
<?xml version="1.0"?>
<VTKFile type="PUnstructuredGrid" version="0.1" byte_order="LittleEndian">
  <PUnstructuredGrid GhostLevel="0">
    <PPoints>
      <PDataArray type="Float32" Name="Position" NumberOfComponents="3" format="ascii"/>
    </PPoints>
    <PCellData Scalars="mpirank,treeid">
      <PDataArray type="Int32" Name="mpirank" format="ascii"/>
      <PDataArray type="Int32" Name="treeid" format="ascii"/>
    </PCellData>
    <PPointData>
    </PPointData>
    <Piece Source="1_0000.vtu"/>
  </PUnstructuredGrid>
</VTKFile>

<?xml version="1.0"?>
<VTKFile type="UnstructuredGrid" version="0.1" byte_order="LittleEndian">
  <UnstructuredGrid>
    <Piece NumberOfPoints="176" NumberOfCells="22">
      <Points>
        <DataArray type="Float32" Name="Position" NumberOfComponents="3" format="ascii">
            1.25000002e-02   1.25000002e-02   1.25000002e-02
            4.87500012e-01   1.25000002e-02   1.25000002e-02
            1.25000002e-02   4.87500012e-01   1.25000002e-02
            4.87500012e-01   4.87500012e-01   1.25000002e-02
            1.25000002e-02   1.25000002e-02   4.87500012e-01
            4.87500012e-01   1.25000002e-02   4.87500012e-01
            1.25000002e-02   4.87500012e-01   4.87500012e-01
            4.87500012e-01   4.87500012e-01   4.87500012e-01
            5.06250024e-01   6.25000009e-03   6.25000009e-03
            7.43749976e-01   6.25000009e-03   6.25000009e-03
            5.06250024e-01   2.43750006e-01   6.25000009e-03
            7.43749976e-01   2.43750006e-01   6.25000009e-03
            5.06250024e-01   6.25000009e-03   2.43750006e-01
            7.43749976e-01   6.25000009e-03   2.43750006e-01
            5.06250024e-01   2.43750006e-01   2.43750006e-01
            7.43749976e-01   2.43750006e-01   2.43750006e-01
            7.56250024e-01   6.25000009e-03   6.25000009e-03
            9.93749976e-01   6.25000009e-03   6.25000009e-03
            7.56250024e-01   2.43750006e-01   6.25000009e-03
            9.93749976e-01   2.43750006e-01   6.25000009e-03
            7.56250024e-01   6.25000009e-03   2.43750006e-01
            9.93749976e-01   6.25000009e-03   2.43750006e-01
            7.56250024e-01   2.43750006e-01   2.43750006e-01
            9.93749976e-01   2.43750006e-01   2.43750006e-01
            5.06250024e-01   2.56249994e-01   6.25000009e-03
            7.43749976e-01   2.56249994e-01   6.25000009e-03
            5.06250024e-01   4.93750006e-01   6.25000009e-03
            7.43749976e-01   4.93750006e-01   6.25000009e-03
            5.06250024e-01   2.56249994e-01   2.43750006e-01
            7.43749976e-01   2.56249994e-01   2.43750006e-01
            5.06250024e-01   4.93750006e-01   2.43750006e-01
            7.43749976e-01   4.93750006e-01   2.43750006e-01
            7.56250024e-01   2.56249994e-01   6.25000009e-03
            9.93749976e-01   2.56249994e-01   6.25000009e-03
            7.56250024e-01   4.93750006e-01   6.25000009e-03
            9.93749976e-01   4.93750006e-01   6.25000009e-03
            7.56250024e-01   2.56249994e-01   2.43750006e-01
            9.93749976e-01   2.56249994e-01   2.43750006e-01
            7.56250024e-01   4.93750006e-01   2.43750006e-01
            9.93749976e-01   4.93750006e-01   2.43750006e-01
            5.06250024e-01   6.25000009e-03   2.56249994e-01
            7.43749976e-01   6.25000009e-03   2.56249994e-01
            5.06250024e-01   2.43750006e-01   2.56249994e-01
            7.43749976e-01   2.43750006e-01   2.56249994e-01
            5.06250024e-01   6.25000009e-03   4.93750006e-01
            7.43749976e-01   6.25000009e-03   4.93750006e-01
            5.06250024e-01   2.43750006e-01   4.93750006e-01
            7.43749976e-01   2.43750006e-01   4.93750006e-01
            7.56250024e-01   6.25000009e-03   2.56249994e-01
            9.93749976e-01   6.25000009e-03   2.56249994e-01
            7.56250024e-01   2.43750006e-01   2.56249994e-01
            9.93749976e-01   2.43750006e-01   2.56249994e-01
            7.56250024e-01   6.25000009e-03   4.93750006e-01
            9.93749976e-01   6.25000009e-03   4.93750006e-01
            7.56250024e-01   2.43750006e-01   4.93750006e-01
            9.93749976e-01   2.43750006e-01   4.93750006e-01
            5.06250024e-01   2.56249994e-01   2.56249994e-01
            7.43749976e-01   2.56249994e-01   2.56249994e-01
            5.06250024e-01   4.93750006e-01   2.56249994e-01
            7.43749976e-01   4.93750006e-01   2.56249994e-01
            5.06250024e-01   2.56249994e-01   4.93750006e-01
            7.43749976e-01   2.56249994e-01   4.93750006e-01
            5.06250024e-01   4.93750006e-01   4.93750006e-01
            7.43749976e-01   4.93750006e-01   4.93750006e-01
            7.56250024e-01   2.56249994e-01   2.56249994e-01
            9.93749976e-01   2.56249994e-01   2.56249994e-01
            7.56250024e-01   4.93750006e-01   2.56249994e-01
            9.93749976e-01   4.93750006e-01   2.56249994e-01
            7.56250024e-01   2.56249994e-01   4.93750006e-01
            9.93749976e-01   2.56249994e-01   4.93750006e-01
            7.56250024e-01   4.93750006e-01   4.93750006e-01
            9.93749976e-01   4.93750006e-01   4.93750006e-01
            1.25000002e-02   5.12499988e-01   1.25000002e-02
            4.87500012e-01   5.12499988e-01   1.25000002e-02
            1.25000002e-02   9.87500012e-01   1.25000002e-02
            4.87500012e-01   9.87500012e-01   1.25000002e-02
            1.25000002e-02   5.12499988e-01   4.87500012e-01
            4.87500012e-01   5.12499988e-01   4.87500012e-01
            1.25000002e-02   9.87500012e-01   4.87500012e-01
            4.87500012e-01   9.87500012e-01   4.87500012e-01
            5.12499988e-01   5.12499988e-01   1.25000002e-02
            9.87500012e-01   5.12499988e-01   1.25000002e-02
            5.12499988e-01   9.87500012e-01   1.25000002e-02
            9.87500012e-01   9.87500012e-01   1.25000002e-02
            5.12499988e-01   5.12499988e-01   4.87500012e-01
            9.87500012e-01   5.12499988e-01   4.87500012e-01
            5.12499988e-01   9.87500012e-01   4.87500012e-01
            9.87500012e-01   9.87500012e-01   4.87500012e-01
            1.25000002e-02   1.25000002e-02   5.12499988e-01
            4.87500012e-01   1.25000002e-02   5.12499988e-01
            1.25000002e-02   4.87500012e-01   5.12499988e-01
            4.87500012e-01   4.87500012e-01   5.12499988e-01
            1.25000002e-02   1.25000002e-02   9.87500012e-01
            4.87500012e-01   1.25000002e-02   9.87500012e-01
            1.25000002e-02   4.87500012e-01   9.87500012e-01
            4.87500012e-01   4.87500012e-01   9.87500012e-01
            5.12499988e-01   1.25000002e-02   5.12499988e-01
            9.87500012e-01   1.25000002e-02   5.12499988e-01
            5.12499988e-01   4.87500012e-01   5.12499988e-01
            9.87500012e-01   4.87500012e-01   5.12499988e-01
            5.12499988e-01   1.25000002e-02   9.87500012e-01
            9.87500012e-01   1.25000002e-02   9.87500012e-01
            5.12499988e-01   4.87500012e-01   9.87500012e-01
            9.87500012e-01   4.87500012e-01   9.87500012e-01
            1.25000002e-02   5.12499988e-01   5.12499988e-01
            4.87500012e-01   5.12499988e-01   5.12499988e-01
            1.25000002e-02   9.87500012e-01   5.12499988e-01
            4.87500012e-01   9.87500012e-01   5.12499988e-01
            1.25000002e-02   5.12499988e-01   9.87500012e-01
            4.87500012e-01   5.12499988e-01   9.87500012e-01
            1.25000002e-02   9.87500012e-01   9.87500012e-01
            4.87500012e-01   9.87500012e-01   9.87500012e-01
            5.06250024e-01   5.06250024e-01   5.06250024e-01
            7.43749976e-01   5.06250024e-01   5.06250024e-01
            5.06250024e-01   7.43749976e-01   5.06250024e-01
            7.43749976e-01   7.43749976e-01   5.06250024e-01
            5.06250024e-01   5.06250024e-01   7.43749976e-01
            7.43749976e-01   5.06250024e-01   7.43749976e-01
            5.06250024e-01   7.43749976e-01   7.43749976e-01
            7.43749976e-01   7.43749976e-01   7.43749976e-01
            7.56250024e-01   5.06250024e-01   5.06250024e-01
            9.93749976e-01   5.06250024e-01   5.06250024e-01
            7.56250024e-01   7.43749976e-01   5.06250024e-01
            9.93749976e-01   7.43749976e-01   5.06250024e-01
            7.56250024e-01   5.06250024e-01   7.43749976e-01
            9.93749976e-01   5.06250024e-01   7.43749976e-01
            7.56250024e-01   7.43749976e-01   7.43749976e-01
            9.93749976e-01   7.43749976e-01   7.43749976e-01
            5.06250024e-01   7.56250024e-01   5.06250024e-01
            7.43749976e-01   7.56250024e-01   5.06250024e-01
            5.06250024e-01   9.93749976e-01   5.06250024e-01
            7.43749976e-01   9.93749976e-01   5.06250024e-01
            5.06250024e-01   7.56250024e-01   7.43749976e-01
            7.43749976e-01   7.56250024e-01   7.43749976e-01
            5.06250024e-01   9.93749976e-01   7.43749976e-01
            7.43749976e-01   9.93749976e-01   7.43749976e-01
            7.56250024e-01   7.56250024e-01   5.06250024e-01
            9.93749976e-01   7.56250024e-01   5.06250024e-01
            7.56250024e-01   9.93749976e-01   5.06250024e-01
            9.93749976e-01   9.93749976e-01   5.06250024e-01
            7.56250024e-01   7.56250024e-01   7.43749976e-01
            9.93749976e-01   7.56250024e-01   7.43749976e-01
            7.56250024e-01   9.93749976e-01   7.43749976e-01
            9.93749976e-01   9.93749976e-01   7.43749976e-01
            5.06250024e-01   5.06250024e-01   7.56250024e-01
            7.43749976e-01   5.06250024e-01   7.56250024e-01
            5.06250024e-01   7.43749976e-01   7.56250024e-01
            7.43749976e-01   7.43749976e-01   7.56250024e-01
            5.06250024e-01   5.06250024e-01   9.93749976e-01
            7.43749976e-01   5.06250024e-01   9.93749976e-01
            5.06250024e-01   7.43749976e-01   9.93749976e-01
            7.43749976e-01   7.43749976e-01   9.93749976e-01
            7.56250024e-01   5.06250024e-01   7.56250024e-01
            9.93749976e-01   5.06250024e-01   7.56250024e-01
            7.56250024e-01   7.43749976e-01   7.56250024e-01
            9.93749976e-01   7.43749976e-01   7.56250024e-01
            7.56250024e-01   5.06250024e-01   9.93749976e-01
            9.93749976e-01   5.06250024e-01   9.93749976e-01
            7.56250024e-01   7.43749976e-01   9.93749976e-01
            9.93749976e-01   7.43749976e-01   9.93749976e-01
            5.06250024e-01   7.56250024e-01   7.56250024e-01
            7.43749976e-01   7.56250024e-01   7.56250024e-01
            5.06250024e-01   9.93749976e-01   7.56250024e-01
            7.43749976e-01   9.93749976e-01   7.56250024e-01
            5.06250024e-01   7.56250024e-01   9.93749976e-01
            7.43749976e-01   7.56250024e-01   9.93749976e-01
            5.06250024e-01   9.93749976e-01   9.93749976e-01
            7.43749976e-01   9.93749976e-01   9.93749976e-01
            7.56250024e-01   7.56250024e-01   7.56250024e-01
            9.93749976e-01   7.56250024e-01   7.56250024e-01
            7.56250024e-01   9.93749976e-01   7.56250024e-01
            9.93749976e-01   9.93749976e-01   7.56250024e-01
            7.56250024e-01   7.56250024e-01   9.93749976e-01
            9.93749976e-01   7.56250024e-01   9.93749976e-01
            7.56250024e-01   9.93749976e-01   9.93749976e-01
            9.93749976e-01   9.93749976e-01   9.93749976e-01
        </DataArray>
      </Points>
      <Cells>
        <DataArray type="Int32" Name="connectivity" format="ascii">
          0 1 2 3 4 5 6 7
          8 9 10 11 12 13 14 15
          16 17 18 19 20 21 22 23
          24 25 26 27 28 29 30 31
          32 33 34 35 36 37 38 39
          40 41 42 43 44 45 46 47
          48 49 50 51 52 53 54 55
          56 57 58 59 60 61 62 63
          64 65 66 67 68 69 70 71
          72 73 74 75 76 77 78 79
          80 81 82 83 84 85 86 87
          88 89 90 91 92 93 94 95
          96 97 98 99 100 101 102 103
          104 105 106 107 108 109 110 111
          112 113 114 115 116 117 118 119
          120 121 122 123 124 125 126 127
          128 129 130 131 132 133 134 135
          136 137 138 139 140 141 142 143
          144 145 146 147 148 149 150 151
          152 153 154 155 156 157 158 159
          160 161 162 163 164 165 166 167
          168 169 170 171 172 173 174 175
        </DataArray>
        <DataArray type="Int32" Name="offsets" format="ascii">
          8 16 24 32 40 48 56 64
          72 80 88 96 104 112 120 128
          136 144 152 160 168 176
        </DataArray>
        <DataArray type="UInt8" Name="types" format="ascii">
          11 11 11 11 11 11 11 11 11 11 11 11 11 11 11 11 11 11 11 11
          11 11
        </DataArray>
      </Cells>
      <CellData Scalars="mpirank,treeid">
        <DataArray type="Int32" Name="mpirank" format="ascii">
          0 0 0 0 0 0 0 0 0 0 0 0 0 0 0 0 0 0 0 0
          0 0
        </DataArray>
        <DataArray type="Int32" Name="treeid" format="ascii">
          0 0 0 0 0 0 0 0 0 0 0 0 0 0 0 0 0 0 0 0
          0 0
        </DataArray>
      </CellData>
      <PointData>
      </PointData>
    </Piece>
  </UnstructuredGrid>
</VTKFile>

DEAL:3d::
DEAL:3d::1 Number of cells: 22 22
DEAL:3d::Refining cell 17
DEAL:3d::Checksum: 2925396400
<?xml version="1.0"?>
<VTKFile type="PUnstructuredGrid" version="0.1" byte_order="LittleEndian">
  <PUnstructuredGrid GhostLevel="0">
    <PPoints>
      <PDataArray type="Float32" Name="Position" NumberOfComponents="3" format="ascii"/>
    </PPoints>
    <PCellData Scalars="mpirank,treeid">
      <PDataArray type="Int32" Name="mpirank" format="ascii"/>
      <PDataArray type="Int32" Name="treeid" format="ascii"/>
    </PCellData>
    <PPointData>
    </PPointData>
    <Piece Source="1_0000.vtu"/>
  </PUnstructuredGrid>
</VTKFile>

<?xml version="1.0"?>
<VTKFile type="UnstructuredGrid" version="0.1" byte_order="LittleEndian">
  <UnstructuredGrid>
    <Piece NumberOfPoints="288" NumberOfCells="36">
      <Points>
        <DataArray type="Float32" Name="Position" NumberOfComponents="3" format="ascii">
            1.25000002e-02   1.25000002e-02   1.25000002e-02
            4.87500012e-01   1.25000002e-02   1.25000002e-02
            1.25000002e-02   4.87500012e-01   1.25000002e-02
            4.87500012e-01   4.87500012e-01   1.25000002e-02
            1.25000002e-02   1.25000002e-02   4.87500012e-01
            4.87500012e-01   1.25000002e-02   4.87500012e-01
            1.25000002e-02   4.87500012e-01   4.87500012e-01
            4.87500012e-01   4.87500012e-01   4.87500012e-01
            5.06250024e-01   6.25000009e-03   6.25000009e-03
            7.43749976e-01   6.25000009e-03   6.25000009e-03
            5.06250024e-01   2.43750006e-01   6.25000009e-03
            7.43749976e-01   2.43750006e-01   6.25000009e-03
            5.06250024e-01   6.25000009e-03   2.43750006e-01
            7.43749976e-01   6.25000009e-03   2.43750006e-01
            5.06250024e-01   2.43750006e-01   2.43750006e-01
            7.43749976e-01   2.43750006e-01   2.43750006e-01
            7.56250024e-01   6.25000009e-03   6.25000009e-03
            9.93749976e-01   6.25000009e-03   6.25000009e-03
            7.56250024e-01   2.43750006e-01   6.25000009e-03
            9.93749976e-01   2.43750006e-01   6.25000009e-03
            7.56250024e-01   6.25000009e-03   2.43750006e-01
            9.93749976e-01   6.25000009e-03   2.43750006e-01
            7.56250024e-01   2.43750006e-01   2.43750006e-01
            9.93749976e-01   2.43750006e-01   2.43750006e-01
            5.06250024e-01   2.56249994e-01   6.25000009e-03
            7.43749976e-01   2.56249994e-01   6.25000009e-03
            5.06250024e-01   4.93750006e-01   6.25000009e-03
            7.43749976e-01   4.93750006e-01   6.25000009e-03
            5.06250024e-01   2.56249994e-01   2.43750006e-01
            7.43749976e-01   2.56249994e-01   2.43750006e-01
            5.06250024e-01   4.93750006e-01   2.43750006e-01
            7.43749976e-01   4.93750006e-01   2.43750006e-01
            7.53125012e-01   2.53125012e-01   3.12500005e-03
            8.71874988e-01   2.53125012e-01   3.12500005e-03
            7.53125012e-01   3.71874988e-01   3.12500005e-03
            8.71874988e-01   3.71874988e-01   3.12500005e-03
            7.53125012e-01   2.53125012e-01   1.21875003e-01
            8.71874988e-01   2.53125012e-01   1.21875003e-01
            7.53125012e-01   3.71874988e-01   1.21875003e-01
            8.71874988e-01   3.71874988e-01   1.21875003e-01
            8.78125012e-01   2.53125012e-01   3.12500005e-03
            9.96874988e-01   2.53125012e-01   3.12500005e-03
            8.78125012e-01   3.71874988e-01   3.12500005e-03
            9.96874988e-01   3.71874988e-01   3.12500005e-03
            8.78125012e-01   2.53125012e-01   1.21875003e-01
            9.96874988e-01   2.53125012e-01   1.21875003e-01
            8.78125012e-01   3.71874988e-01   1.21875003e-01
            9.96874988e-01   3.71874988e-01   1.21875003e-01
            7.53125012e-01   3.78125012e-01   3.12500005e-03
            8.71874988e-01   3.78125012e-01   3.12500005e-03
            7.53125012e-01   4.96874988e-01   3.12500005e-03
            8.71874988e-01   4.96874988e-01   3.12500005e-03
            7.53125012e-01   3.78125012e-01   1.21875003e-01
            8.71874988e-01   3.78125012e-01   1.21875003e-01
            7.53125012e-01   4.96874988e-01   1.21875003e-01
            8.71874988e-01   4.96874988e-01   1.21875003e-01
            8.78125012e-01   3.78125012e-01   3.12500005e-03
            9.96874988e-01   3.78125012e-01   3.12500005e-03
            8.78125012e-01   4.96874988e-01   3.12500005e-03
            9.96874988e-01   4.96874988e-01   3.12500005e-03
            8.78125012e-01   3.78125012e-01   1.21875003e-01
            9.96874988e-01   3.78125012e-01   1.21875003e-01
            8.78125012e-01   4.96874988e-01   1.21875003e-01
            9.96874988e-01   4.96874988e-01   1.21875003e-01
            7.53125012e-01   2.53125012e-01   1.28124997e-01
            8.71874988e-01   2.53125012e-01   1.28124997e-01
            7.53125012e-01   3.71874988e-01   1.28124997e-01
            8.71874988e-01   3.71874988e-01   1.28124997e-01
            7.53125012e-01   2.53125012e-01   2.46875003e-01
            8.71874988e-01   2.53125012e-01   2.46875003e-01
            7.53125012e-01   3.71874988e-01   2.46875003e-01
            8.71874988e-01   3.71874988e-01   2.46875003e-01
            8.78125012e-01   2.53125012e-01   1.28124997e-01
            9.96874988e-01   2.53125012e-01   1.28124997e-01
            8.78125012e-01   3.71874988e-01   1.28124997e-01
            9.96874988e-01   3.71874988e-01   1.28124997e-01
            8.78125012e-01   2.53125012e-01   2.46875003e-01
            9.96874988e-01   2.53125012e-01   2.46875003e-01
            8.78125012e-01   3.71874988e-01   2.46875003e-01
            9.96874988e-01   3.71874988e-01   2.46875003e-01
            7.53125012e-01   3.78125012e-01   1.28124997e-01
            8.71874988e-01   3.78125012e-01   1.28124997e-01
            7.53125012e-01   4.96874988e-01   1.28124997e-01
            8.71874988e-01   4.96874988e-01   1.28124997e-01
            7.53125012e-01   3.78125012e-01   2.46875003e-01
            8.71874988e-01   3.78125012e-01   2.46875003e-01
            7.53125012e-01   4.96874988e-01   2.46875003e-01
            8.71874988e-01   4.96874988e-01   2.46875003e-01
            8.78125012e-01   3.78125012e-01   1.28124997e-01
            9.96874988e-01   3.78125012e-01   1.28124997e-01
            8.78125012e-01   4.96874988e-01   1.28124997e-01
            9.96874988e-01   4.96874988e-01   1.28124997e-01
            8.78125012e-01   3.78125012e-01   2.46875003e-01
            9.96874988e-01   3.78125012e-01   2.46875003e-01
            8.78125012e-01   4.96874988e-01   2.46875003e-01
            9.96874988e-01   4.96874988e-01   2.46875003e-01
            5.06250024e-01   6.25000009e-03   2.56249994e-01
            7.43749976e-01   6.25000009e-03   2.56249994e-01
            5.06250024e-01   2.43750006e-01   2.56249994e-01
            7.43749976e-01   2.43750006e-01   2.56249994e-01