# coordinates to use: x and y
# old format of keys
# unstructured data, block format
TITLE = "quad Mesh File"
VARIABLES = "X", "Y",
 "Z"
ZONE T="Zone-4" N=		8 E=4 C=BLACK F=FEBlock 
DT=(SINGLE SINGLE SINGLE )
1 0 -1 0 
2 0 -2 0 
0 1 0 -1 0 2 0 -2
0 0 0
0 0 0 0 0

1 5 6 2
2 6 7 3
3 7 8 4
4 8 5 1
