
DEAL::Checking Q1 in 1d:
object "vertices" class array type float rank 1 shape 1 items 6 data follows
0.50	
1.0	
0.0	
0.25	
0.25	
0.50	
object "cells" class array type int rank 1 shape 2 items 3 data follows
0	1
2	3
4	5

attribute "element type" string "lines"
attribute "ref" string "positions"
object "data" class array type float rank 1 shape 1 items 6 data follows
	0.0
	0.0
	1.0
	1.0
	2.0
	2.0
attribute "dep" string "positions"
object "deal data" class field
component "positions" value "vertices"
component "connections" value "cells"
component "data" value "data"
attribute 
end
# This file was generated by the deal.II library.


#
# For a description of the UCD format see the AVS Developer's guide.
#
6 3 1 0 0
1   0.50 0 0 
2   1.0 0 0 
3   0.0 0 0 
4   0.25 0 0 
5   0.25 0 0 
6   0.50 0 0 

1	0 line	1	2
2	0 line	3	4
3	0 line	5	6

1    1 
cell_data,dimensionless
1	0.0
2	0.0
3	1.0
4	1.0
5	2.0
6	2.0
gmvinput ascii

nodes 6
0.50 1.0 0.0 0.25 0.25 0.50 
0 0 0 0 0 0 
0 0 0 0 0 0 
cells 3
line 2
1	2
line 2
3	4
line 2
5	6
variable
cell_data 1
0.0 0.0 1.0 1.0 2.0 2.0 

endvars
endgmv
# This file was generated by the deal.II library.


#
# For a description of the Tecplot format see the Tecplot documentation.
#
Variables="x", "cell_data"
zone f=feblock, n=6, e=3, et=lineseg
0.50
1.0
0.0
0.25
0.25
0.50

0.0
0.0
1.0
1.0
2.0
2.0

1	2
3	4
5	6
# vtk DataFile Version 3.0
#This file was generated 
ASCII
DATASET UNSTRUCTURED_GRID

POINTS 6 double
0.50 0 0
1.0 0 0
0.0 0 0
0.25 0 0
0.25 0 0
0.50 0 0

CELLS 3 9
2	0	1
2	2	3
2	4	5

CELL_TYPES 3
 3 3 3
POINT_DATA 6
SCALARS cell_data double 1
LOOKUP_TABLE default
0.0 0.0 1.0 1.0 2.0 2.0 
# This file was generated by the deal.II library.


#
# For a description of the GNUPLOT format see the GNUPLOT manual.
#
# <x> <cell_data> 
0.50 0.0 
1.0 0.0 


0.0 1.0 
0.25 1.0 


0.25 2.0 
0.50 2.0 


1 1
[deal.II intermediate format graphics data]
[written by deal.II x.y.z]
[Version: 3]
1
cell_data
3
[deal.II intermediate Patch<1,1>]
0.50 1.0 
4294967295 4294967295 
0 1
0
1 2
0.0 0.0 


[deal.II intermediate Patch<1,1>]
0.0 0.25 
4294967295 2 
1 1
0
1 2
1.0 1.0 


[deal.II intermediate Patch<1,1>]
0.25 0.50 
1 4294967295 
2 1
0
1 2
2.0 2.0 


0

DEAL::Checking Q1 in 2d:
object "vertices" class array type float rank 1 shape 2 items 28 data follows
0.50	0.0	
1.0	0.0	
0.50	0.50	
1.0	0.50	
0.0	0.50	
0.50	0.50	
0.0	1.0	
0.50	1.0	
0.50	0.50	
1.0	0.50	
0.50	1.0	
1.0	1.0	
0.0	0.0	
0.25	0.0	
0.0	0.25	
0.25	0.25	
0.25	0.0	
0.50	0.0	
0.25	0.25	
0.50	0.25	
0.0	0.25	
0.25	0.25	
0.0	0.50	
0.25	0.50	
0.25	0.25	
0.50	0.25	
0.25	0.50	
0.50	0.50	
object "cells" class array type int rank 1 shape 4 items 7 data follows
0	2	1	3
4	6	5	7
8	10	9	11
12	14	13	15
16	18	17	19
20	22	21	23
24	26	25	27

attribute "element type" string "quads"
attribute "ref" string "positions"
object "data" class array type float rank 1 shape 1 items 28 data follows
	0.0
	0.0
	0.0
	0.0
	1.0
	1.0
	1.0
	1.0
	2.0
	2.0
	2.0
	2.0
	3.0
	3.0
	3.0
	3.0
	4.0
	4.0
	4.0
	4.0
	5.0
	5.0
	5.0
	5.0
	6.0
	6.0
	6.0
	6.0
attribute "dep" string "positions"
object "deal data" class field
component "positions" value "vertices"
component "connections" value "cells"
component "data" value "data"
attribute 
end
# This file was generated by the deal.II library.


#
# For a description of the UCD format see the AVS Developer's guide.
#
28 7 1 0 0
1   0.50 0.0 0 
2   1.0 0.0 0 
3   0.50 0.50 0 
4   1.0 0.50 0 
5   0.0 0.50 0 
6   0.50 0.50 0 
7   0.0 1.0 0 
8   0.50 1.0 0 
9   0.50 0.50 0 
10   1.0 0.50 0 
11   0.50 1.0 0 
12   1.0 1.0 0 
13   0.0 0.0 0 
14   0.25 0.0 0 
15   0.0 0.25 0 
16   0.25 0.25 0 
17   0.25 0.0 0 
18   0.50 0.0 0 
19   0.25 0.25 0 
20   0.50 0.25 0 
21   0.0 0.25 0 
22   0.25 0.25 0 
23   0.0 0.50 0 
24   0.25 0.50 0 
25   0.25 0.25 0 
26   0.50 0.25 0 
27   0.25 0.50 0 
28   0.50 0.50 0 

1	0 quad	1	2	4	3
2	0 quad	5	6	8	7
3	0 quad	9	10	12	11
4	0 quad	13	14	16	15
5	0 quad	17	18	20	19
6	0 quad	21	22	24	23
7	0 quad	25	26	28	27

1    1 
cell_data,dimensionless
1	0.0
2	0.0
3	0.0
4	0.0
5	1.0
6	1.0
7	1.0
8	1.0
9	2.0
10	2.0
11	2.0
12	2.0
13	3.0
14	3.0
15	3.0
16	3.0
17	4.0
18	4.0
19	4.0
20	4.0
21	5.0
22	5.0
23	5.0
24	5.0
25	6.0
26	6.0
27	6.0
28	6.0
gmvinput ascii

nodes 28
0.50 1.0 0.50 1.0 0.0 0.50 0.0 0.50 0.50 1.0 0.50 1.0 0.0 0.25 0.0 0.25 0.25 0.50 0.25 0.50 0.0 0.25 0.0 0.25 0.25 0.50 0.25 0.50 
0.0 0.0 0.50 0.50 0.50 0.50 1.0 1.0 0.50 0.50 1.0 1.0 0.0 0.0 0.25 0.25 0.0 0.0 0.25 0.25 0.25 0.25 0.50 0.50 0.25 0.25 0.50 0.50 
0 0 0 0 0 0 0 0 0 0 0 0 0 0 0 0 0 0 0 0 0 0 0 0 0 0 0 0 
cells 7
quad 4
1	2	4	3
quad 4
5	6	8	7
quad 4
9	10	12	11
quad 4
13	14	16	15
quad 4
17	18	20	19
quad 4
21	22	24	23
quad 4
25	26	28	27
variable
cell_data 1
0.0 0.0 0.0 0.0 1.0 1.0 1.0 1.0 2.0 2.0 2.0 2.0 3.0 3.0 3.0 3.0 4.0 4.0 4.0 4.0 5.0 5.0 5.0 5.0 6.0 6.0 6.0 6.0 

endvars
endgmv
# This file was generated by the deal.II library.


#
# For a description of the Tecplot format see the Tecplot documentation.
#
Variables="x", "y", "cell_data"
zone f=feblock, n=28, e=7, et=quadrilateral
0.50
1.0
0.50
1.0
0.0
0.50
0.0
0.50
0.50
1.0
0.50
1.0
0.0
0.25
0.0
0.25
0.25
0.50
0.25
0.50
0.0
0.25
0.0
0.25
0.25
0.50
0.25
0.50

0.0
0.0
0.50
0.50
0.50
0.50
1.0
1.0
0.50
0.50
1.0
1.0
0.0
0.0
0.25
0.25
0.0
0.0
0.25
0.25
0.25
0.25
0.50
0.50
0.25
0.25
0.50
0.50

0.0
0.0
0.0
0.0
1.0
1.0
1.0
1.0
2.0
2.0
2.0
2.0
3.0
3.0
3.0
3.0
4.0
4.0
4.0
4.0
5.0
5.0
5.0
5.0
6.0
6.0
6.0
6.0

1	2	4	3
5	6	8	7
9	10	12	11
13	14	16	15
17	18	20	19
21	22	24	23
25	26	28	27
# vtk DataFile Version 3.0
#This file was generated 
ASCII
DATASET UNSTRUCTURED_GRID

POINTS 28 double
0.50 0.0 0
1.0 0.0 0
0.50 0.50 0
1.0 0.50 0
0.0 0.50 0
0.50 0.50 0
0.0 1.0 0
0.50 1.0 0
0.50 0.50 0
1.0 0.50 0
0.50 1.0 0
1.0 1.0 0
0.0 0.0 0
0.25 0.0 0
0.0 0.25 0
0.25 0.25 0
0.25 0.0 0
0.50 0.0 0
0.25 0.25 0
0.50 0.25 0
0.0 0.25 0
0.25 0.25 0
0.0 0.50 0
0.25 0.50 0
0.25 0.25 0
0.50 0.25 0
0.25 0.50 0
0.50 0.50 0

CELLS 7 35
4	0	1	3	2
4	4	5	7	6
4	8	9	11	10
4	12	13	15	14
4	16	17	19	18
4	20	21	23	22
4	24	25	27	26

CELL_TYPES 7
 9 9 9 9 9 9 9
POINT_DATA 28
SCALARS cell_data double 1
LOOKUP_TABLE default
0.0 0.0 0.0 0.0 1.0 1.0 1.0 1.0 2.0 2.0 2.0 2.0 3.0 3.0 3.0 3.0 4.0 4.0 4.0 4.0 5.0 5.0 5.0 5.0 6.0 6.0 6.0 6.0 
# This file was generated by the deal.II library.


#
# For a description of the GNUPLOT format see the GNUPLOT manual.
#
# <x> <y> <cell_data> 
0.50 0.0 0.0 
1.0 0.0 0.0 

0.50 0.50 0.0 
1.0 0.50 0.0 


0.0 0.50 1.0 
0.50 0.50 1.0 

0.0 1.0 1.0 
0.50 1.0 1.0 


0.50 0.50 2.0 
1.0 0.50 2.0 

0.50 1.0 2.0 
1.0 1.0 2.0 


0.0 0.0 3.0 
0.25 0.0 3.0 

0.0 0.25 3.0 
0.25 0.25 3.0 


0.25 0.0 4.0 
0.50 0.0 4.0 

0.25 0.25 4.0 
0.50 0.25 4.0 


0.0 0.25 5.0 
0.25 0.25 5.0 

0.0 0.50 5.0 
0.25 0.50 5.0 


0.25 0.25 6.0 
0.50 0.25 6.0 

0.25 0.50 6.0 
0.50 0.50 6.0 


2 2
[deal.II intermediate format graphics data]
[written by deal.II x.y.z]
[Version: 3]
1
cell_data
7
[deal.II intermediate Patch<2,2>]
0.50 0.0 1.0 0.0 1.0 0.50 0.50 0.50 
4294967295 4294967295 4294967295 2 
0 1
0
1 4
0.0 0.0 0.0 0.0 


[deal.II intermediate Patch<2,2>]
0.0 0.50 0.50 0.50 0.50 1.0 0.0 1.0 
4294967295 2 4294967295 4294967295 
1 1
0
1 4
1.0 1.0 1.0 1.0 


[deal.II intermediate Patch<2,2>]
0.50 0.50 1.0 0.50 1.0 1.0 0.50 1.0 
1 4294967295 0 4294967295 
2 1
0
1 4
2.0 2.0 2.0 2.0 


[deal.II intermediate Patch<2,2>]
0.0 0.0 0.25 0.0 0.25 0.25 0.0 0.25 
4294967295 4 4294967295 5 
3 1
0
1 4
3.0 3.0 3.0 3.0 


[deal.II intermediate Patch<2,2>]
0.25 0.0 0.50 0.0 0.50 0.25 0.25 0.25 
3 4294967295 4294967295 6 
4 1
0
1 4
4.0 4.0 4.0 4.0 


[deal.II intermediate Patch<2,2>]
0.0 0.25 0.25 0.25 0.25 0.50 0.0 0.50 
4294967295 6 3 4294967295 
5 1
0
1 4
5.0 5.0 5.0 5.0 


[deal.II intermediate Patch<2,2>]
0.25 0.25 0.50 0.25 0.50 0.50 0.25 0.50 
5 4294967295 4 4294967295 
6 1
0
1 4
6.0 6.0 6.0 6.0 


0

/* This file was generated by the deal.II library.



   For a description of the POVRAY format see the POVRAY manual.
*/ 
#include "colors.inc" 
#include "textures.inc" 


camera {
  location <1,4,-7>
  look_at <0,0,0>
  angle 30
}

light_source {
  <1,4,-7>
  color Grey
}

light_source {
  <0,20,0>
  color White
}
#declare HMIN=0.0;
#declare HMAX=6.0;

#declare Tex=texture{
  pigment {
    gradient y
    scale y*(HMAX-HMIN)*0.10
    color_map {
      [0.00 color Light_Purple] 
      [0.95 color Light_Purple] 
      [1.00 color White]    
} } }


mesh {
triangle {
	<0.50,0.0,0.0>,
	<1.0,0.0,0.0>,
	<1.0,0.0,0.50>}
triangle {
	<0.50,0.0,0.0>,
	<1.0,0.0,0.50>,
	<0.50,0.0,0.50>}
triangle {
	<0.0,1.0,0.50>,
	<0.50,1.0,0.50>,
	<0.50,1.0,1.0>}
triangle {
	<0.0,1.0,0.50>,
	<0.50,1.0,1.0>,
	<0.0,1.0,1.0>}
triangle {
	<0.50,2.0,0.50>,
	<1.0,2.0,0.50>,
	<1.0,2.0,1.0>}
triangle {
	<0.50,2.0,0.50>,
	<1.0,2.0,1.0>,
	<0.50,2.0,1.0>}
triangle {
	<0.0,3.0,0.0>,
	<0.25,3.0,0.0>,
	<0.25,3.0,0.25>}
triangle {
	<0.0,3.0,0.0>,
	<0.25,3.0,0.25>,
	<0.0,3.0,0.25>}
triangle {
	<0.25,4.0,0.0>,
	<0.50,4.0,0.0>,
	<0.50,4.0,0.25>}
triangle {
	<0.25,4.0,0.0>,
	<0.50,4.0,0.25>,
	<0.25,4.0,0.25>}
triangle {
	<0.0,5.0,0.25>,
	<0.25,5.0,0.25>,
	<0.25,5.0,0.50>}
triangle {
	<0.0,5.0,0.25>,
	<0.25,5.0,0.50>,
	<0.0,5.0,0.50>}
triangle {
	<0.25,6.0,0.25>,
	<0.50,6.0,0.25>,
	<0.50,6.0,0.50>}
triangle {
	<0.25,6.0,0.25>,
	<0.50,6.0,0.50>,
	<0.25,6.0,0.50>}
  texture {Tex}
}

%!PS-Adobe-2.0 EPSF-1.2
%%Title: deal.II Output
%%Creator: the deal.II library

%%BoundingBox: 0 0 300 1230
/m {moveto} bind def
/l {lineto} bind def
/s {setrgbcolor} bind def
/sg {setgray} bind def
/lx {lineto closepath stroke} bind def
/lf {lineto closepath fill} bind def
%%EndProlog

0.50 setlinewidth
0.0000 0.0000 0.66667 s 54.904 292.64 m 150.00 265.19 l 204.90 312.74 l 109.81 340.19 lf
0 sg 54.904 292.64 m 150.00 265.19 l 204.90 312.74 l 109.81 340.19 lx
0.0000 sg 95.096 27.452 m 190.19 0.0000 l 245.10 47.548 l 150.00 75.000 lf
0 sg 95.096 27.452 m 190.19 0.0000 l 245.10 47.548 l 150.00 75.000 lx
0.0000 0.33333 0.66667 s 150.00 455.38 m 245.10 427.93 l 300.00 475.48 l 204.90 502.93 lf
0 sg 150.00 455.38 m 245.10 427.93 l 300.00 475.48 l 204.90 502.93 lx
0.0000 1.0000 0.0000 s 0.0000 625.48 m 47.548 611.75 l 75.000 635.53 l 27.452 649.25 lf
0 sg 0.0000 625.48 m 47.548 611.75 l 75.000 635.53 l 27.452 649.25 lx
0.66667 0.33333 0.0000 s 47.548 801.95 m 95.096 788.22 l 122.55 812.00 l 75.000 825.72 lf
0 sg 47.548 801.95 m 95.096 788.22 l 122.55 812.00 l 75.000 825.72 lx
1.0000 0.33333 0.33333 s 27.452 1029.6 m 75.000 1015.9 l 102.45 1039.7 l 54.904 1053.4 lf
0 sg 27.452 1029.6 m 75.000 1015.9 l 102.45 1039.7 l 54.904 1053.4 lx
1.0000 sg 75.000 1206.1 m 122.55 1192.4 l 150.00 1216.2 l 102.45 1229.9 lf
0 sg 75.000 1206.1 m 122.55 1192.4 l 150.00 1216.2 l 102.45 1229.9 lx
showpage
DEAL::Checking Q1 in 3d:
object "vertices" class array type float rank 1 shape 3 items 120 data follows
0.50	0.0	0.0	
1.0	0.0	0.0	
0.50	0.50	0.0	
1.0	0.50	0.0	
0.50	0.0	0.50	
1.0	0.0	0.50	
0.50	0.50	0.50	
1.0	0.50	0.50	
0.0	0.50	0.0	
0.50	0.50	0.0	
0.0	1.0	0.0	
0.50	1.0	0.0	
0.0	0.50	0.50	
0.50	0.50	0.50	
0.0	1.0	0.50	
0.50	1.0	0.50	
0.50	0.50	0.0	
1.0	0.50	0.0	
0.50	1.0	0.0	
1.0	1.0	0.0	
0.50	0.50	0.50	
1.0	0.50	0.50	
0.50	1.0	0.50	
1.0	1.0	0.50	
0.0	0.0	0.50	
0.50	0.0	0.50	
0.0	0.50	0.50	
0.50	0.50	0.50	
0.0	0.0	1.0	
0.50	0.0	1.0	
0.0	0.50	1.0	
0.50	0.50	1.0	
0.50	0.0	0.50	
1.0	0.0	0.50	
0.50	0.50	0.50	
1.0	0.50	0.50	
0.50	0.0	1.0	
1.0	0.0	1.0	
0.50	0.50	1.0	
1.0	0.50	1.0	
0.0	0.50	0.50	
0.50	0.50	0.50	
0.0	1.0	0.50	
0.50	1.0	0.50	
0.0	0.50	1.0	
0.50	0.50	1.0	
0.0	1.0	1.0	
0.50	1.0	1.0	
0.50	0.50	0.50	
1.0	0.50	0.50	
0.50	1.0	0.50	
1.0	1.0	0.50	
0.50	0.50	1.0	
1.0	0.50	1.0	
0.50	1.0	1.0	
1.0	1.0	1.0	
0.0	0.0	0.0	
0.25	0.0	0.0	
0.0	0.25	0.0	
0.25	0.25	0.0	
0.0	0.0	0.25	
0.25	0.0	0.25	
0.0	0.25	0.25	
0.25	0.25	0.25	
0.25	0.0	0.0	
0.50	0.0	0.0	
0.25	0.25	0.0	
0.50	0.25	0.0	
0.25	0.0	0.25	
0.50	0.0	0.25	
0.25	0.25	0.25	
0.50	0.25	0.25	
0.0	0.25	0.0	
0.25	0.25	0.0	
0.0	0.50	0.0	
0.25	0.50	0.0	
0.0	0.25	0.25	
0.25	0.25	0.25	
0.0	0.50	0.25	
0.25	0.50	0.25	
0.25	0.25	0.0	
0.50	0.25	0.0	
0.25	0.50	0.0	
0.50	0.50	0.0	
0.25	0.25	0.25	
0.50	0.25	0.25	
0.25	0.50	0.25	
0.50	0.50	0.25	
0.0	0.0	0.25	
0.25	0.0	0.25	
0.0	0.25	0.25	
0.25	0.25	0.25	
0.0	0.0	0.50	
0.25	0.0	0.50	
0.0	0.25	0.50	
0.25	0.25	0.50	
0.25	0.0	0.25	
0.50	0.0	0.25	
0.25	0.25	0.25	
0.50	0.25	0.25	
0.25	0.0	0.50	
0.50	0.0	0.50	
0.25	0.25	0.50	
0.50	0.25	0.50	
0.0	0.25	0.25	
0.25	0.25	0.25	
0.0	0.50	0.25	
0.25	0.50	0.25	
0.0	0.25	0.50	
0.25	0.25	0.50	
0.0	0.50	0.50	
0.25	0.50	0.50	
0.25	0.25	0.25	
0.50	0.25	0.25	
0.25	0.50	0.25	
0.50	0.50	0.25	
0.25	0.25	0.50	
0.50	0.25	0.50	
0.25	0.50	0.50	
0.50	0.50	0.50	
object "cells" class array type int rank 1 shape 8 items 15 data follows
0	4	2	6	1	5	3	7
8	12	10	14	9	13	11	15
16	20	18	22	17	21	19	23
24	28	26	30	25	29	27	31
32	36	34	38	33	37	35	39
40	44	42	46	41	45	43	47
48	52	50	54	49	53	51	55
56	60	58	62	57	61	59	63
64	68	66	70	65	69	67	71
72	76	74	78	73	77	75	79
80	84	82	86	81	85	83	87
88	92	90	94	89	93	91	95
96	100	98	102	97	101	99	103
104	108	106	110	105	109	107	111
112	116	114	118	113	117	115	119

attribute "element type" string "cubes"
attribute "ref" string "positions"
object "data" class array type float rank 1 shape 1 items 120 data follows
	0.0
	0.0
	0.0
	0.0
	0.0
	0.0
	0.0
	0.0
	1.0
	1.0
	1.0
	1.0
	1.0
	1.0
	1.0
	1.0
	2.0
	2.0
	2.0
	2.0
	2.0
	2.0
	2.0
	2.0
	3.0
	3.0
	3.0
	3.0
	3.0
	3.0
	3.0
	3.0
	4.0
	4.0
	4.0
	4.0
	4.0
	4.0
	4.0
	4.0
	5.0
	5.0
	5.0
	5.0
	5.0
	5.0
	5.0
	5.0
	6.0
	6.0
	6.0
	6.0
	6.0
	6.0
	6.0
	6.0
	7.0
	7.0
	7.0
	7.0
	7.0
	7.0
	7.0
	7.0
	8.0
	8.0
	8.0
	8.0
	8.0
	8.0
	8.0
	8.0
	9.0
	9.0
	9.0
	9.0
	9.0
	9.0
	9.0
	9.0
	10.
	10.
	10.
	10.
	10.
	10.
	10.
	10.
	11.
	11.
	11.
	11.
	11.
	11.
	11.
	11.
	12.
	12.
	12.
	12.
	12.
	12.
	12.
	12.
	13.
	13.
	13.
	13.
	13.
	13.
	13.
	13.
	14.
	14.
	14.
	14.
	14.
	14.
	14.
	14.
attribute "dep" string "positions"
object "deal data" class field
component "positions" value "vertices"
component "connections" value "cells"
component "data" value "data"
attribute 
end
# This file was generated by the deal.II library.


#
# For a description of the UCD format see the AVS Developer's guide.
#
120 15 1 0 0
1   0.50 0.0 0.0 
2   1.0 0.0 0.0 
3   0.50 0.50 0.0 
4   1.0 0.50 0.0 
5   0.50 0.0 0.50 
6   1.0 0.0 0.50 
7   0.50 0.50 0.50 
8   1.0 0.50 0.50 
9   0.0 0.50 0.0 
10   0.50 0.50 0.0 
11   0.0 1.0 0.0 
12   0.50 1.0 0.0 
13   0.0 0.50 0.50 
14   0.50 0.50 0.50 
15   0.0 1.0 0.50 
16   0.50 1.0 0.50 
17   0.50 0.50 0.0 
18   1.0 0.50 0.0 
19   0.50 1.0 0.0 
20   1.0 1.0 0.0 
21   0.50 0.50 0.50 
22   1.0 0.50 0.50 
23   0.50 1.0 0.50 
24   1.0 1.0 0.50 
25   0.0 0.0 0.50 
26   0.50 0.0 0.50 
27   0.0 0.50 0.50 
28   0.50 0.50 0.50 
29   0.0 0.0 1.0 
30   0.50 0.0 1.0 
31   0.0 0.50 1.0 
32   0.50 0.50 1.0 
33   0.50 0.0 0.50 
34   1.0 0.0 0.50 
35   0.50 0.50 0.50 
36   1.0 0.50 0.50 
37   0.50 0.0 1.0 
38   1.0 0.0 1.0 
39   0.50 0.50 1.0 
40   1.0 0.50 1.0 
41   0.0 0.50 0.50 
42   0.50 0.50 0.50 
43   0.0 1.0 0.50 
44   0.50 1.0 0.50 
45   0.0 0.50 1.0 
46   0.50 0.50 1.0 
47   0.0 1.0 1.0 
48   0.50 1.0 1.0 
49   0.50 0.50 0.50 
50   1.0 0.50 0.50 
51   0.50 1.0 0.50 
52   1.0 1.0 0.50 
53   0.50 0.50 1.0 
54   1.0 0.50 1.0 
55   0.50 1.0 1.0 
56   1.0 1.0 1.0 
57   0.0 0.0 0.0 
58   0.25 0.0 0.0 
59   0.0 0.25 0.0 
60   0.25 0.25 0.0 
61   0.0 0.0 0.25 
62   0.25 0.0 0.25 
63   0.0 0.25 0.25 
64   0.25 0.25 0.25 
65   0.25 0.0 0.0 
66   0.50 0.0 0.0 
67   0.25 0.25 0.0 
68   0.50 0.25 0.0 
69   0.25 0.0 0.25 
70   0.50 0.0 0.25 
71   0.25 0.25 0.25 
72   0.50 0.25 0.25 
73   0.0 0.25 0.0 
74   0.25 0.25 0.0 
75   0.0 0.50 0.0 
76   0.25 0.50 0.0 
77   0.0 0.25 0.25 
78   0.25 0.25 0.25 
79   0.0 0.50 0.25 
80   0.25 0.50 0.25 
81   0.25 0.25 0.0 
82   0.50 0.25 0.0 
83   0.25 0.50 0.0 
84   0.50 0.50 0.0 
85   0.25 0.25 0.25 
86   0.50 0.25 0.25 
87   0.25 0.50 0.25 
88   0.50 0.50 0.25 
89   0.0 0.0 0.25 
90   0.25 0.0 0.25 
91   0.0 0.25 0.25 
92   0.25 0.25 0.25 
93   0.0 0.0 0.50 
94   0.25 0.0 0.50 
95   0.0 0.25 0.50 
96   0.25 0.25 0.50 
97   0.25 0.0 0.25 
98   0.50 0.0 0.25 
99   0.25 0.25 0.25 
100   0.50 0.25 0.25 
101   0.25 0.0 0.50 
102   0.50 0.0 0.50 
103   0.25 0.25 0.50 
104   0.50 0.25 0.50 
105   0.0 0.25 0.25 
106   0.25 0.25 0.25 
107   0.0 0.50 0.25 
108   0.25 0.50 0.25 
109   0.0 0.25 0.50 
110   0.25 0.25 0.50 
111   0.0 0.50 0.50 
112   0.25 0.50 0.50 
113   0.25 0.25 0.25 
114   0.50 0.25 0.25 
115   0.25 0.50 0.25 
116   0.50 0.50 0.25 
117   0.25 0.25 0.50 
118   0.50 0.25 0.50 
119   0.25 0.50 0.50 
120   0.50 0.50 0.50 

1	0 hex	1	2	5	6	4	3	8	7
2	0 hex	9	10	13	14	12	11	16	15
3	0 hex	17	18	21	22	20	19	24	23
4	0 hex	25	26	29	30	28	27	32	31
5	0 hex	33	34	37	38	36	35	40	39
6	0 hex	41	42	45	46	44	43	48	47
7	0 hex	49	50	53	54	52	51	56	55
8	0 hex	57	58	61	62	60	59	64	63
9	0 hex	65	66	69	70	68	67	72	71
10	0 hex	73	74	77	78	76	75	80	79
11	0 hex	81	82	85	86	84	83	88	87
12	0 hex	89	90	93	94	92	91	96	95
13	0 hex	97	98	101	102	100	99	104	103
14	0 hex	105	106	109	110	108	107	112	111
15	0 hex	113	114	117	118	116	115	120	119

1    1 
cell_data,dimensionless
1	0.0
2	0.0
3	0.0
4	0.0
5	0.0
6	0.0
7	0.0
8	0.0
9	1.0
10	1.0
11	1.0
12	1.0
13	1.0
14	1.0
15	1.0
16	1.0
17	2.0
18	2.0
19	2.0
20	2.0
21	2.0
22	2.0
23	2.0
24	2.0
25	3.0
26	3.0
27	3.0
28	3.0
29	3.0
30	3.0
31	3.0
32	3.0
33	4.0
34	4.0
35	4.0
36	4.0
37	4.0
38	4.0
39	4.0
40	4.0
41	5.0
42	5.0
43	5.0
44	5.0
45	5.0
46	5.0
47	5.0
48	5.0
49	6.0
50	6.0
51	6.0
52	6.0
53	6.0
54	6.0
55	6.0
56	6.0
57	7.0
58	7.0
59	7.0
60	7.0
61	7.0
62	7.0
63	7.0
64	7.0
65	8.0
66	8.0
67	8.0
68	8.0
69	8.0
70	8.0
71	8.0
72	8.0
73	9.0
74	9.0
75	9.0
76	9.0
77	9.0
78	9.0
79	9.0
80	9.0
81	10.
82	10.
83	10.
84	10.
85	10.
86	10.
87	10.
88	10.
89	11.
90	11.
91	11.
92	11.
93	11.
94	11.
95	11.
96	11.
97	12.
98	12.
99	12.
100	12.
101	12.
102	12.
103	12.
104	12.
105	13.
106	13.
107	13.
108	13.
109	13.
110	13.
111	13.
112	13.
113	14.
114	14.
115	14.
116	14.
117	14.
118	14.
119	14.
120	14.
gmvinput ascii

nodes 120
0.50 1.0 0.50 1.0 0.50 1.0 0.50 1.0 0.0 0.50 0.0 0.50 0.0 0.50 0.0 0.50 0.50 1.0 0.50 1.0 0.50 1.0 0.50 1.0 0.0 0.50 0.0 0.50 0.0 0.50 0.0 0.50 0.50 1.0 0.50 1.0 0.50 1.0 0.50 1.0 0.0 0.50 0.0 0.50 0.0 0.50 0.0 0.50 0.50 1.0 0.50 1.0 0.50 1.0 0.50 1.0 0.0 0.25 0.0 0.25 0.0 0.25 0.0 0.25 0.25 0.50 0.25 0.50 0.25 0.50 0.25 0.50 0.0 0.25 0.0 0.25 0.0 0.25 0.0 0.25 0.25 0.50 0.25 0.50 0.25 0.50 0.25 0.50 0.0 0.25 0.0 0.25 0.0 0.25 0.0 0.25 0.25 0.50 0.25 0.50 0.25 0.50 0.25 0.50 0.0 0.25 0.0 0.25 0.0 0.25 0.0 0.25 0.25 0.50 0.25 0.50 0.25 0.50 0.25 0.50 
0.0 0.0 0.50 0.50 0.0 0.0 0.50 0.50 0.50 0.50 1.0 1.0 0.50 0.50 1.0 1.0 0.50 0.50 1.0 1.0 0.50 0.50 1.0 1.0 0.0 0.0 0.50 0.50 0.0 0.0 0.50 0.50 0.0 0.0 0.50 0.50 0.0 0.0 0.50 0.50 0.50 0.50 1.0 1.0 0.50 0.50 1.0 1.0 0.50 0.50 1.0 1.0 0.50 0.50 1.0 1.0 0.0 0.0 0.25 0.25 0.0 0.0 0.25 0.25 0.0 0.0 0.25 0.25 0.0 0.0 0.25 0.25 0.25 0.25 0.50 0.50 0.25 0.25 0.50 0.50 0.25 0.25 0.50 0.50 0.25 0.25 0.50 0.50 0.0 0.0 0.25 0.25 0.0 0.0 0.25 0.25 0.0 0.0 0.25 0.25 0.0 0.0 0.25 0.25 0.25 0.25 0.50 0.50 0.25 0.25 0.50 0.50 0.25 0.25 0.50 0.50 0.25 0.25 0.50 0.50 
0.0 0.0 0.0 0.0 0.50 0.50 0.50 0.50 0.0 0.0 0.0 0.0 0.50 0.50 0.50 0.50 0.0 0.0 0.0 0.0 0.50 0.50 0.50 0.50 0.50 0.50 0.50 0.50 1.0 1.0 1.0 1.0 0.50 0.50 0.50 0.50 1.0 1.0 1.0 1.0 0.50 0.50 0.50 0.50 1.0 1.0 1.0 1.0 0.50 0.50 0.50 0.50 1.0 1.0 1.0 1.0 0.0 0.0 0.0 0.0 0.25 0.25 0.25 0.25 0.0 0.0 0.0 0.0 0.25 0.25 0.25 0.25 0.0 0.0 0.0 0.0 0.25 0.25 0.25 0.25 0.0 0.0 0.0 0.0 0.25 0.25 0.25 0.25 0.25 0.25 0.25 0.25 0.50 0.50 0.50 0.50 0.25 0.25 0.25 0.25 0.50 0.50 0.50 0.50 0.25 0.25 0.25 0.25 0.50 0.50 0.50 0.50 0.25 0.25 0.25 0.25 0.50 0.50 0.50 0.50 
cells 15
hex 8
1	2	4	3	5	6	8	7
hex 8
9	10	12	11	13	14	16	15
hex 8
17	18	20	19	21	22	24	23
hex 8
25	26	28	27	29	30	32	31
hex 8
33	34	36	35	37	38	40	39
hex 8
41	42	44	43	45	46	48	47
hex 8
49	50	52	51	53	54	56	55
hex 8
57	58	60	59	61	62	64	63
hex 8
65	66	68	67	69	70	72	71
hex 8
73	74	76	75	77	78	80	79
hex 8
81	82	84	83	85	86	88	87
hex 8
89	90	92	91	93	94	96	95
hex 8
97	98	100	99	101	102	104	103
hex 8
105	106	108	107	109	110	112	111
hex 8
113	114	116	115	117	118	120	119
variable
cell_data 1
0.0 0.0 0.0 0.0 0.0 0.0 0.0 0.0 1.0 1.0 1.0 1.0 1.0 1.0 1.0 1.0 2.0 2.0 2.0 2.0 2.0 2.0 2.0 2.0 3.0 3.0 3.0 3.0 3.0 3.0 3.0 3.0 4.0 4.0 4.0 4.0 4.0 4.0 4.0 4.0 5.0 5.0 5.0 5.0 5.0 5.0 5.0 5.0 6.0 6.0 6.0 6.0 6.0 6.0 6.0 6.0 7.0 7.0 7.0 7.0 7.0 7.0 7.0 7.0 8.0 8.0 8.0 8.0 8.0 8.0 8.0 8.0 9.0 9.0 9.0 9.0 9.0 9.0 9.0 9.0 10. 10. 10. 10. 10. 10. 10. 10. 11. 11. 11. 11. 11. 11. 11. 11. 12. 12. 12. 12. 12. 12. 12. 12. 13. 13. 13. 13. 13. 13. 13. 13. 14. 14. 14. 14. 14. 14. 14. 14. 

endvars
endgmv
# This file was generated by the deal.II library.


#
# For a description of the Tecplot format see the Tecplot documentation.
#
Variables="x", "y", "z", "cell_data"
zone f=feblock, n=120, e=15, et=brick
0.50
1.0
0.50
1.0
0.50
1.0
0.50
1.0
0.0
0.50
0.0
0.50
0.0
0.50
0.0
0.50
0.50
1.0
0.50
1.0
0.50
1.0
0.50
1.0
0.0
0.50
0.0
0.50
0.0
0.50
0.0
0.50
0.50
1.0
0.50
1.0
0.50
1.0
0.50
1.0
0.0
0.50
0.0
0.50
0.0
0.50
0.0
0.50
0.50
1.0
0.50
1.0
0.50
1.0
0.50
1.0
0.0
0.25
0.0
0.25
0.0
0.25
0.0
0.25
0.25
0.50
0.25
0.50
0.25
0.50
0.25
0.50
0.0
0.25
0.0
0.25
0.0
0.25
0.0
0.25
0.25
0.50
0.25
0.50
0.25
0.50
0.25
0.50
0.0
0.25
0.0
0.25
0.0
0.25
0.0
0.25
0.25
0.50
0.25
0.50
0.25
0.50
0.25
0.50
0.0
0.25
0.0
0.25
0.0
0.25
0.0
0.25
0.25
0.50
0.25
0.50
0.25
0.50
0.25
0.50

0.0
0.0
0.50
0.50
0.0
0.0
0.50
0.50
0.50
0.50
1.0
1.0
0.50
0.50
1.0
1.0
0.50
0.50
1.0
1.0
0.50
0.50
1.0
1.0
0.0
0.0
0.50
0.50
0.0
0.0
0.50
0.50
0.0
0.0
0.50
0.50
0.0
0.0
0.50
0.50
0.50
0.50
1.0
1.0
0.50
0.50
1.0
1.0
0.50
0.50
1.0
1.0
0.50
0.50
1.0
1.0
0.0
0.0
0.25
0.25
0.0
0.0
0.25
0.25
0.0
0.0
0.25
0.25
0.0
0.0
0.25
0.25
0.25
0.25
0.50
0.50
0.25
0.25
0.50
0.50
0.25
0.25
0.50
0.50
0.25
0.25
0.50
0.50
0.0
0.0
0.25
0.25
0.0
0.0
0.25
0.25
0.0
0.0
0.25
0.25
0.0
0.0
0.25
0.25
0.25
0.25
0.50
0.50
0.25
0.25
0.50
0.50
0.25
0.25
0.50
0.50
0.25
0.25
0.50
0.50

0.0
0.0
0.0
0.0
0.50
0.50
0.50
0.50
0.0
0.0
0.0
0.0
0.50
0.50
0.50
0.50
0.0
0.0
0.0
0.0
0.50
0.50
0.50
0.50
0.50
0.50
0.50
0.50
1.0
1.0
1.0
1.0
0.50
0.50
0.50
0.50
1.0
1.0
1.0
1.0
0.50
0.50
0.50
0.50
1.0
1.0
1.0
1.0
0.50
0.50
0.50
0.50
1.0
1.0
1.0
1.0
0.0
0.0
0.0
0.0
0.25
0.25
0.25
0.25
0.0
0.0
0.0
0.0
0.25
0.25
0.25
0.25
0.0
0.0
0.0
0.0
0.25
0.25
0.25
0.25
0.0
0.0
0.0
0.0
0.25
0.25
0.25
0.25
0.25
0.25
0.25
0.25
0.50
0.50
0.50
0.50
0.25
0.25
0.25
0.25
0.50
0.50
0.50
0.50
0.25
0.25
0.25
0.25
0.50
0.50
0.50
0.50
0.25
0.25
0.25
0.25
0.50
0.50
0.50
0.50

0.0
0.0
0.0
0.0
0.0
0.0
0.0
0.0
1.0
1.0
1.0
1.0
1.0
1.0
1.0
1.0
2.0
2.0
2.0
2.0
2.0
2.0
2.0
2.0
3.0
3.0
3.0
3.0
3.0
3.0
3.0
3.0
4.0
4.0
4.0
4.0
4.0
4.0
4.0
4.0
5.0
5.0
5.0
5.0
5.0
5.0
5.0
5.0
6.0
6.0
6.0
6.0
6.0
6.0
6.0
6.0
7.0
7.0
7.0
7.0
7.0
7.0
7.0
7.0
8.0
8.0
8.0
8.0
8.0
8.0
8.0
8.0
9.0
9.0
9.0
9.0
9.0
9.0
9.0
9.0
10.
10.
10.
10.
10.
10.
10.
10.
11.
11.
11.
11.
11.
11.
11.
11.
12.
12.
12.
12.
12.
12.
12.
12.
13.
13.
13.
13.
13.
13.
13.
13.
14.
14.
14.
14.
14.
14.
14.
14.

1	2	4	3	5	6	8	7
9	10	12	11	13	14	16	15
17	18	20	19	21	22	24	23
25	26	28	27	29	30	32	31
33	34	36	35	37	38	40	39
41	42	44	43	45	46	48	47
49	50	52	51	53	54	56	55
57	58	60	59	61	62	64	63
65	66	68	67	69	70	72	71
73	74	76	75	77	78	80	79
81	82	84	83	85	86	88	87
89	90	92	91	93	94	96	95
97	98	100	99	101	102	104	103
105	106	108	107	109	110	112	111
113	114	116	115	117	118	120	119
# vtk DataFile Version 3.0
#This file was generated 
ASCII
DATASET UNSTRUCTURED_GRID

POINTS 120 double
0.50 0.0 0.0
1.0 0.0 0.0
0.50 0.50 0.0
1.0 0.50 0.0
0.50 0.0 0.50
1.0 0.0 0.50
0.50 0.50 0.50
1.0 0.50 0.50
0.0 0.50 0.0
0.50 0.50 0.0
0.0 1.0 0.0
0.50 1.0 0.0
0.0 0.50 0.50
0.50 0.50 0.50
0.0 1.0 0.50
0.50 1.0 0.50
0.50 0.50 0.0
1.0 0.50 0.0
0.50 1.0 0.0
1.0 1.0 0.0
0.50 0.50 0.50
1.0 0.50 0.50
0.50 1.0 0.50
1.0 1.0 0.50
0.0 0.0 0.50
0.50 0.0 0.50
0.0 0.50 0.50
0.50 0.50 0.50
0.0 0.0 1.0
0.50 0.0 1.0
0.0 0.50 1.0
0.50 0.50 1.0
0.50 0.0 0.50
1.0 0.0 0.50
0.50 0.50 0.50
1.0 0.50 0.50
0.50 0.0 1.0
1.0 0.0 1.0
0.50 0.50 1.0
1.0 0.50 1.0
0.0 0.50 0.50
0.50 0.50 0.50
0.0 1.0 0.50
0.50 1.0 0.50
0.0 0.50 1.0
0.50 0.50 1.0
0.0 1.0 1.0
0.50 1.0 1.0
0.50 0.50 0.50
1.0 0.50 0.50
0.50 1.0 0.50
1.0 1.0 0.50
0.50 0.50 1.0
1.0 0.50 1.0
0.50 1.0 1.0
1.0 1.0 1.0
0.0 0.0 0.0
0.25 0.0 0.0
0.0 0.25 0.0
0.25 0.25 0.0
0.0 0.0 0.25
0.25 0.0 0.25
0.0 0.25 0.25
0.25 0.25 0.25
0.25 0.0 0.0
0.50 0.0 0.0
0.25 0.25 0.0
0.50 0.25 0.0
0.25 0.0 0.25
0.50 0.0 0.25
0.25 0.25 0.25
0.50 0.25 0.25
0.0 0.25 0.0
0.25 0.25 0.0
0.0 0.50 0.0
0.25 0.50 0.0
0.0 0.25 0.25
0.25 0.25 0.25
0.0 0.50 0.25
0.25 0.50 0.25
0.25 0.25 0.0
0.50 0.25 0.0
0.25 0.50 0.0
0.50 0.50 0.0
0.25 0.25 0.25
0.50 0.25 0.25
0.25 0.50 0.25
0.50 0.50 0.25
0.0 0.0 0.25
0.25 0.0 0.25
0.0 0.25 0.25
0.25 0.25 0.25
0.0 0.0 0.50
0.25 0.0 0.50
0.0 0.25 0.50
0.25 0.25 0.50
0.25 0.0 0.25
0.50 0.0 0.25
0.25 0.25 0.25
0.50 0.25 0.25
0.25 0.0 0.50
0.50 0.0 0.50
0.25 0.25 0.50
0.50 0.25 0.50
0.0 0.25 0.25
0.25 0.25 0.25
0.0 0.50 0.25
0.25 0.50 0.25
0.0 0.25 0.50
0.25 0.25 0.50
0.0 0.50 0.50
0.25 0.50 0.50
0.25 0.25 0.25
0.50 0.25 0.25
0.25 0.50 0.25
0.50 0.50 0.25
0.25 0.25 0.50
0.50 0.25 0.50
0.25 0.50 0.50
0.50 0.50 0.50

CELLS 15 135
8	0	1	3	2	4	5	7	6
8	8	9	11	10	12	13	15	14
8	16	17	19	18	20	21	23	22
8	24	25	27	26	28	29	31	30
8	32	33	35	34	36	37	39	38
8	40	41	43	42	44	45	47	46
8	48	49	51	50	52	53	55	54
8	56	57	59	58	60	61	63	62
8	64	65	67	66	68	69	71	70
8	72	73	75	74	76	77	79	78
8	80	81	83	82	84	85	87	86
8	88	89	91	90	92	93	95	94
8	96	97	99	98	100	101	103	102
8	104	105	107	106	108	109	111	110
8	112	113	115	114	116	117	119	118

CELL_TYPES 15
 12 12 12 12 12 12 12 12 12 12 12 12 12 12 12
POINT_DATA 120
SCALARS cell_data double 1
LOOKUP_TABLE default
0.0 0.0 0.0 0.0 0.0 0.0 0.0 0.0 1.0 1.0 1.0 1.0 1.0 1.0 1.0 1.0 2.0 2.0 2.0 2.0 2.0 2.0 2.0 2.0 3.0 3.0 3.0 3.0 3.0 3.0 3.0 3.0 4.0 4.0 4.0 4.0 4.0 4.0 4.0 4.0 5.0 5.0 5.0 5.0 5.0 5.0 5.0 5.0 6.0 6.0 6.0 6.0 6.0 6.0 6.0 6.0 7.0 7.0 7.0 7.0 7.0 7.0 7.0 7.0 8.0 8.0 8.0 8.0 8.0 8.0 8.0 8.0 9.0 9.0 9.0 9.0 9.0 9.0 9.0 9.0 10. 10. 10. 10. 10. 10. 10. 10. 11. 11. 11. 11. 11. 11. 11. 11. 12. 12. 12. 12. 12. 12. 12. 12. 13. 13. 13. 13. 13. 13. 13. 13. 14. 14. 14. 14. 14. 14. 14. 14. 
# This file was generated by the deal.II library.


#
# For a description of the GNUPLOT format see the GNUPLOT manual.
#
# <x> <y> <z> <cell_data> 
0.50 0.0 0.0 0.0
1.0 0.0 0.0 0.0


0.50 0.0 0.0 0.0
0.50 0.50 0.0 0.0


0.50 0.0 0.0 0.0
0.50 0.0 0.50 0.0


1.0 0.0 0.0 0.0
1.0 0.50 0.0 0.0


1.0 0.0 0.0 0.0
1.0 0.0 0.50 0.0


0.50 0.50 0.0 0.0
1.0 0.50 0.0 0.0


0.50 0.50 0.0 0.0
0.50 0.50 0.50 0.0


1.0 0.50 0.0 0.0
1.0 0.50 0.50 0.0


0.50 0.0 0.50 0.0
1.0 0.0 0.50 0.0


0.50 0.0 0.50 0.0
0.50 0.50 0.50 0.0


1.0 0.0 0.50 0.0
1.0 0.50 0.50 0.0


0.50 0.50 0.50 0.0
1.0 0.50 0.50 0.0


0.0 0.50 0.0 1.0
0.50 0.50 0.0 1.0


0.0 0.50 0.0 1.0
0.0 1.0 0.0 1.0


0.0 0.50 0.0 1.0
0.0 0.50 0.50 1.0


0.50 0.50 0.0 1.0
0.50 1.0 0.0 1.0


0.50 0.50 0.0 1.0
0.50 0.50 0.50 1.0


0.0 1.0 0.0 1.0
0.50 1.0 0.0 1.0


0.0 1.0 0.0 1.0
0.0 1.0 0.50 1.0


0.50 1.0 0.0 1.0
0.50 1.0 0.50 1.0


0.0 0.50 0.50 1.0
0.50 0.50 0.50 1.0


0.0 0.50 0.50 1.0
0.0 1.0 0.50 1.0


0.50 0.50 0.50 1.0
0.50 1.0 0.50 1.0


0.0 1.0 0.50 1.0
0.50 1.0 0.50 1.0


0.50 0.50 0.0 2.0
1.0 0.50 0.0 2.0


0.50 0.50 0.0 2.0
0.50 1.0 0.0 2.0


0.50 0.50 0.0 2.0
0.50 0.50 0.50 2.0


1.0 0.50 0.0 2.0
1.0 1.0 0.0 2.0


1.0 0.50 0.0 2.0
1.0 0.50 0.50 2.0


0.50 1.0 0.0 2.0
1.0 1.0 0.0 2.0


0.50 1.0 0.0 2.0
0.50 1.0 0.50 2.0


1.0 1.0 0.0 2.0
1.0 1.0 0.50 2.0


0.50 0.50 0.50 2.0
1.0 0.50 0.50 2.0


0.50 0.50 0.50 2.0
0.50 1.0 0.50 2.0


1.0 0.50 0.50 2.0
1.0 1.0 0.50 2.0


0.50 1.0 0.50 2.0
1.0 1.0 0.50 2.0


0.0 0.0 0.50 3.0
0.50 0.0 0.50 3.0


0.0 0.0 0.50 3.0
0.0 0.50 0.50 3.0


0.0 0.0 0.50 3.0
0.0 0.0 1.0 3.0


0.50 0.0 0.50 3.0
0.50 0.50 0.50 3.0


0.50 0.0 0.50 3.0
0.50 0.0 1.0 3.0


0.0 0.50 0.50 3.0
0.50 0.50 0.50 3.0


0.0 0.50 0.50 3.0
0.0 0.50 1.0 3.0


0.50 0.50 0.50 3.0
0.50 0.50 1.0 3.0


0.0 0.0 1.0 3.0
0.50 0.0 1.0 3.0


0.0 0.0 1.0 3.0
0.0 0.50 1.0 3.0


0.50 0.0 1.0 3.0
0.50 0.50 1.0 3.0


0.0 0.50 1.0 3.0
0.50 0.50 1.0 3.0


0.50 0.0 0.50 4.0
1.0 0.0 0.50 4.0


0.50 0.0 0.50 4.0
0.50 0.50 0.50 4.0


0.50 0.0 0.50 4.0
0.50 0.0 1.0 4.0


1.0 0.0 0.50 4.0
1.0 0.50 0.50 4.0


1.0 0.0 0.50 4.0
1.0 0.0 1.0 4.0


0.50 0.50 0.50 4.0
1.0 0.50 0.50 4.0


0.50 0.50 0.50 4.0
0.50 0.50 1.0 4.0


1.0 0.50 0.50 4.0
1.0 0.50 1.0 4.0


0.50 0.0 1.0 4.0
1.0 0.0 1.0 4.0


0.50 0.0 1.0 4.0
0.50 0.50 1.0 4.0


1.0 0.0 1.0 4.0
1.0 0.50 1.0 4.0


0.50 0.50 1.0 4.0
1.0 0.50 1.0 4.0


0.0 0.50 0.50 5.0
0.50 0.50 0.50 5.0


0.0 0.50 0.50 5.0
0.0 1.0 0.50 5.0


0.0 0.50 0.50 5.0
0.0 0.50 1.0 5.0


0.50 0.50 0.50 5.0
0.50 1.0 0.50 5.0


0.50 0.50 0.50 5.0
0.50 0.50 1.0 5.0


0.0 1.0 0.50 5.0
0.50 1.0 0.50 5.0


0.0 1.0 0.50 5.0
0.0 1.0 1.0 5.0


0.50 1.0 0.50 5.0
0.50 1.0 1.0 5.0


0.0 0.50 1.0 5.0
0.50 0.50 1.0 5.0


0.0 0.50 1.0 5.0
0.0 1.0 1.0 5.0


0.50 0.50 1.0 5.0
0.50 1.0 1.0 5.0


0.0 1.0 1.0 5.0
0.50 1.0 1.0 5.0


0.50 0.50 0.50 6.0
1.0 0.50 0.50 6.0


0.50 0.50 0.50 6.0
0.50 1.0 0.50 6.0


0.50 0.50 0.50 6.0
0.50 0.50 1.0 6.0


1.0 0.50 0.50 6.0
1.0 1.0 0.50 6.0


1.0 0.50 0.50 6.0
1.0 0.50 1.0 6.0


0.50 1.0 0.50 6.0
1.0 1.0 0.50 6.0


0.50 1.0 0.50 6.0
0.50 1.0 1.0 6.0


1.0 1.0 0.50 6.0
1.0 1.0 1.0 6.0


0.50 0.50 1.0 6.0
1.0 0.50 1.0 6.0


0.50 0.50 1.0 6.0
0.50 1.0 1.0 6.0


1.0 0.50 1.0 6.0
1.0 1.0 1.0 6.0


0.50 1.0 1.0 6.0
1.0 1.0 1.0 6.0


0.0 0.0 0.0 7.0
0.25 0.0 0.0 7.0


0.0 0.0 0.0 7.0
0.0 0.25 0.0 7.0


0.0 0.0 0.0 7.0
0.0 0.0 0.25 7.0


0.25 0.0 0.0 7.0
0.25 0.25 0.0 7.0


0.25 0.0 0.0 7.0
0.25 0.0 0.25 7.0


0.0 0.25 0.0 7.0
0.25 0.25 0.0 7.0


0.0 0.25 0.0 7.0
0.0 0.25 0.25 7.0


0.25 0.25 0.0 7.0
0.25 0.25 0.25 7.0


0.0 0.0 0.25 7.0
0.25 0.0 0.25 7.0


0.0 0.0 0.25 7.0
0.0 0.25 0.25 7.0


0.25 0.0 0.25 7.0
0.25 0.25 0.25 7.0


0.0 0.25 0.25 7.0
0.25 0.25 0.25 7.0


0.25 0.0 0.0 8.0
0.50 0.0 0.0 8.0


0.25 0.0 0.0 8.0
0.25 0.25 0.0 8.0


0.25 0.0 0.0 8.0
0.25 0.0 0.25 8.0


0.50 0.0 0.0 8.0
0.50 0.25 0.0 8.0


0.50 0.0 0.0 8.0
0.50 0.0 0.25 8.0


0.25 0.25 0.0 8.0
0.50 0.25 0.0 8.0


0.25 0.25 0.0 8.0
0.25 0.25 0.25 8.0