# vtk DataFile Version 3.0
write mesh on file
ASCII
DATASET UNSTRUCTURED_GRID
POINTS 20 double
0.000000 0.000000 10.000000
10.000000 0.000000 10.000000
10.000000 10.000000 10.000000
0.000000 10.000000 10.000000
20.000000 0.000000 10.000000
20.000000 10.000000 10.000000
30.000000 10.000000 10.000000
10.000000 20.000000 10.000000
20.000000 20.000000 10.000000
30.000000 20.000000 10.000000
0.000000 0.000000 0.000000
10.000000 0.000000 0.000000
10.000000 10.000000 0.000000
0.000000 10.000000 0.000000
20.000000 0.000000 0.000000
20.000000 10.000000 0.000000
30.000000 10.000000 0.000000
10.000000 20.000000 0.000000
20.000000 20.000000 0.000000
30.000000 20.000000 0.000000
CELLS 4 36
8 10 11 12 13 0 1 2 3
8 11 14 15 12 1 4 5 2
8 12 15 18 17 2 5 8 7
8 15 16 19 18 5 6 9 8
CELL_TYPES 4
12
12
12
12
CELL_DATA 4
SCALARS MaterialID int 1
LOOKUP_TABLE default
1
2
3
4
