
DEAL:0:2d::hyper_cube
<?xml version="1.0"?>
<!--
#This file was generated 
-->
<VTKFile type="PUnstructuredGrid" version="0.1" byte_order="LittleEndian">
  <PUnstructuredGrid GhostLevel="0">
    <PPointData Scalars="scalars">
    <PDataArray type="Float32" Name="subdomain" format="ascii"/>
    <PDataArray type="Float32" Name="proc_writing" format="ascii"/>
    </PPointData>
    <PPoints>
      <PDataArray type="Float32" NumberOfComponents="3"/>
    </PPoints>
    <Piece Source="file1.proc0000.vtu"/>
    <Piece Source="file1.proc0001.vtu"/>
  </PUnstructuredGrid>
</VTKFile>

<?xml version="1.0" ?> 
<!-- 
# vtk DataFile Version 3.0
#This file was generated 
-->
<VTKFile type="UnstructuredGrid" version="0.1" byte_order="LittleEndian">
<UnstructuredGrid>
<Piece NumberOfPoints="16" NumberOfCells="4" >
  <Points>
    <DataArray type="Float32" NumberOfComponents="3" format="ascii">
0 0 0
1 0 0
0 1 0
1 1 0
0 0 0
0.5 0 0
0 0.5 0
0.5 0.5 0
0.5 0 0
1 0 0
0.5 0.5 0
1 0.5 0
0.5 0.5 0
1 0.5 0
0.5 1 0
1 1 0
    </DataArray>
  </Points>

  <Cells>
    <DataArray type="Int32" Name="connectivity" format="ascii">
0	1	3	2
4	5	7	6
8	9	11	10
12	13	15	14
    </DataArray>
    <DataArray type="Int32" Name="offsets" format="ascii">
4 8 12 16 
    </DataArray>
    <DataArray type="UInt8" Name="types" format="ascii">
9 9 9 9 
    </DataArray>
  </Cells>
  <PointData Scalars="scalars">
    <DataArray type="Float32" Name="level" format="ascii">
0 0 0 0 1 1 1 1 1 1 1 1 1 1 1 1 
    </DataArray>
    <DataArray type="Float32" Name="subdomain" format="ascii">
-1 -1 -1 -1 0 0 0 0 1 1 1 1 -2 -2 -2 -2 
    </DataArray>
    <DataArray type="Float32" Name="level_subdomain" format="ascii">
0 0 0 0 -2 -2 -2 -2 0 0 0 0 1 1 1 1 
    </DataArray>
    <DataArray type="Float32" Name="proc_writing" format="ascii">
0 0 0 0 0 0 0 0 0 0 0 0 0 0 0 0 
    </DataArray>
  </PointData>
 </Piece>
 </UnstructuredGrid>
</VTKFile>


<?xml version="1.0" ?> 
<!-- 
# vtk DataFile Version 3.0
#This file was generated 
-->
<VTKFile type="UnstructuredGrid" version="0.1" byte_order="LittleEndian">
<UnstructuredGrid>
<Piece NumberOfPoints="16" NumberOfCells="4" >
  <Points>
    <DataArray type="Float32" NumberOfComponents="3" format="ascii">
0 0 0
1 0 0
0 1 0
1 1 0
0 0 0
0.5 0 0
0 0.5 0
0.5 0.5 0
0.5 0 0
1 0 0
0.5 0.5 0
1 0.5 0
0.5 0.5 0
1 0.5 0
0.5 1 0
1 1 0
    </DataArray>
  </Points>

  <Cells>
    <DataArray type="Int32" Name="connectivity" format="ascii">
0	1	3	2
4	5	7	6
8	9	11	10
12	13	15	14
    </DataArray>
    <DataArray type="Int32" Name="offsets" format="ascii">
4 8 12 16 
    </DataArray>
    <DataArray type="UInt8" Name="types" format="ascii">
9 9 9 9 
    </DataArray>
  </Cells>
  <PointData Scalars="scalars">
    <DataArray type="Float32" Name="level" format="ascii">
0 0 0 0 1 1 1 1 1 1 1 1 1 1 1 1 
    </DataArray>
    <DataArray type="Float32" Name="subdomain" format="ascii">
-1 -1 -1 -1 0 0 0 0 1 1 1 1 -2 -2 -2 -2 
    </DataArray>
    <DataArray type="Float32" Name="level_subdomain" format="ascii">
0 0 0 0 -2 -2 -2 -2 0 0 0 0 1 1 1 1 
    </DataArray>
    <DataArray type="Float32" Name="proc_writing" format="ascii">
1 1 1 1 1 1 1 1 1 1 1 1 1 1 1 1 
    </DataArray>
  </PointData>
 </Piece>
 </UnstructuredGrid>
</VTKFile>


