# vtk DataFile Version 3.0
#This file was generated 
ASCII
DATASET UNSTRUCTURED_GRID

POINTS 144 double
0.5 2 0
0.75 2 0
0.5 3 0
0.75 3 0
0.75 2 0
1 2 0
0.75 3 0
1 3 0
0.5 3 0
0.75 3 0
0.5 4 0
0.75 4 0
0.75 3 0
1 3 0
0.75 4 0
1 4 0
0 0 0
0.125 0 0
0 0.5 0
0.125 0.5 0
0.125 0 0
0.25 0 0
0.125 0.5 0
0.25 0.5 0
0 0.5 0
0.125 0.5 0
0 1 0
0.125 1 0
0.125 0.5 0
0.25 0.5 0
0.125 1 0
0.25 1 0
0.25 0 0
0.375 0 0
0.25 0.5 0
0.375 0.5 0
0.375 0 0
0.5 0 0
0.375 0.5 0
0.5 0.5 0
0.25 0.5 0
0.375 0.5 0
0.25 1 0
0.375 1 0
0.375 0.5 0
0.5 0.5 0
0.375 1 0
0.5 1 0
0 1 0
0.125 1 0
0 1.5 0
0.125 1.5 0
0.125 1 0
0.25 1 0
0.125 1.5 0
0.25 1.5 0
0 1.5 0
0.125 1.5 0
0 2 0
0.125 2 0
0.125 1.5 0
0.25 1.5 0
0.125 2 0
0.25 2 0
0.25 1 0
0.375 1 0
0.25 1.5 0
0.375 1.5 0
0.375 1 0
0.5 1 0
0.375 1.5 0
0.5 1.5 0
0.25 1.5 0
0.375 1.5 0
0.25 2 0
0.375 2 0
0.375 1.5 0
0.5 1.5 0
0.375 2 0
0.5 2 0
0.5 0 0
0.75 0 0
0.5 0.5 0
0.75 0.5 0
0.5 0.5 0
0.75 0.5 0
0.5 1 0
0.75 1 0
0.5 1 0
0.75 1 0
0.5 1.5 0
0.75 1.5 0
0.5 1.5 0
0.75 1.5 0
0.5 2 0
0.75 2 0
0 2 0
0.125 2 0
0 3 0
0.125 3 0
0.125 2 0
0.25 2 0
0.125 3 0
0.25 3 0
0.25 2 0
0.375 2 0
0.25 3 0
0.375 3 0
0.375 2 0
0.5 2 0
0.375 3 0
0.5 3 0
0.75 0 0
1 0 0
0.75 0.5 0
1 0.5 0
0.75 0.5 0
1 0.5 0
0.75 1 0
1 1 0
0.75 1 0
1 1 0
0.75 1.5 0
1 1.5 0
0.75 1.5 0
1 1.5 0
0.75 2 0
1 2 0
0 3 0
0.125 3 0
0 4 0
0.125 4 0
0.125 3 0
0.25 3 0
0.125 4 0
0.25 4 0
0.25 3 0
0.375 3 0
0.25 4 0
0.375 4 0
0.375 3 0
0.5 3 0
0.375 4 0
0.5 4 0

CELLS 36 180
4	0	1	3	2
4	4	5	7	6
4	8	9	11	10
4	12	13	15	14
4	16	17	19	18
4	20	21	23	22
4	24	25	27	26
4	28	29	31	30
4	32	33	35	34
4	36	37	39	38
4	40	41	43	42
4	44	45	47	46
4	48	49	51	50
4	52	53	55	54
4	56	57	59	58
4	60	61	63	62
4	64	65	67	66
4	68	69	71	70
4	72	73	75	74
4	76	77	79	78
4	80	81	83	82
4	84	85	87	86
4	88	89	91	90
4	92	93	95	94
4	96	97	99	98
4	100	101	103	102
4	104	105	107	106
4	108	109	111	110
4	112	113	115	114
4	116	117	119	118
4	120	121	123	122
4	124	125	127	126
4	128	129	131	130
4	132	133	135	134
4	136	137	139	138
4	140	141	143	142

CELL_TYPES 36
 9 9 9 9 9 9 9 9 9 9 9 9 9 9 9 9 9 9 9 9 9 9 9 9 9 9 9 9 9 9 9 9 9 9 9 9
POINT_DATA 144
SCALARS level double 1
LOOKUP_TABLE default
2 2 2 2 2 2 2 2 2 2 2 2 2 2 2 2 3 3 3 3 3 3 3 3 3 3 3 3 3 3 3 3 3 3 3 3 3 3 3 3 3 3 3 3 3 3 3 3 3 3 3 3 3 3 3 3 3 3 3 3 3 3 3 3 3 3 3 3 3 3 3 3 3 3 3 3 3 3 3 3 3 3 3 3 3 3 3 3 3 3 3 3 3 3 3 3 3 3 3 3 3 3 3 3 3 3 3 3 3 3 3 3 3 3 3 3 3 3 3 3 3 3 3 3 3 3 3 3 3 3 3 3 3 3 3 3 3 3 3 3 3 3 3 3 
SCALARS manifold double 1
LOOKUP_TABLE default
-1 -1 -1 -1 -1 -1 -1 -1 -1 -1 -1 -1 -1 -1 -1 -1 -1 -1 -1 -1 -1 -1 -1 -1 -1 -1 -1 -1 -1 -1 -1 -1 -1 -1 -1 -1 -1 -1 -1 -1 -1 -1 -1 -1 -1 -1 -1 -1 -1 -1 -1 -1 -1 -1 -1 -1 -1 -1 -1 -1 -1 -1 -1 -1 -1 -1 -1 -1 -1 -1 -1 -1 -1 -1 -1 -1 -1 -1 -1 -1 -1 -1 -1 -1 -1 -1 -1 -1 -1 -1 -1 -1 -1 -1 -1 -1 -1 -1 -1 -1 -1 -1 -1 -1 -1 -1 -1 -1 -1 -1 -1 -1 -1 -1 -1 -1 -1 -1 -1 -1 -1 -1 -1 -1 -1 -1 -1 -1 -1 -1 -1 -1 -1 -1 -1 -1 -1 -1 -1 -1 -1 -1 -1 -1 
SCALARS material double 1
LOOKUP_TABLE default
0 0 0 0 0 0 0 0 0 0 0 0 0 0 0 0 0 0 0 0 0 0 0 0 0 0 0 0 0 0 0 0 0 0 0 0 0 0 0 0 0 0 0 0 0 0 0 0 0 0 0 0 0 0 0 0 0 0 0 0 0 0 0 0 0 0 0 0 0 0 0 0 0 0 0 0 0 0 0 0 0 0 0 0 0 0 0 0 0 0 0 0 0 0 0 0 0 0 0 0 0 0 0 0 0 0 0 0 0 0 0 0 0 0 0 0 0 0 0 0 0 0 0 0 0 0 0 0 0 0 0 0 0 0 0 0 0 0 0 0 0 0 0 0 
SCALARS subdomain double 1
LOOKUP_TABLE default
0 0 0 0 0 0 0 0 0 0 0 0 0 0 0 0 0 0 0 0 0 0 0 0 0 0 0 0 0 0 0 0 0 0 0 0 0 0 0 0 0 0 0 0 0 0 0 0 0 0 0 0 0 0 0 0 0 0 0 0 0 0 0 0 0 0 0 0 0 0 0 0 0 0 0 0 0 0 0 0 0 0 0 0 0 0 0 0 0 0 0 0 0 0 0 0 0 0 0 0 0 0 0 0 0 0 0 0 0 0 0 0 0 0 0 0 0 0 0 0 0 0 0 0 0 0 0 0 0 0 0 0 0 0 0 0 0 0 0 0 0 0 0 0 
SCALARS level_subdomain double 1
LOOKUP_TABLE default
0 0 0 0 0 0 0 0 0 0 0 0 0 0 0 0 0 0 0 0 0 0 0 0 0 0 0 0 0 0 0 0 0 0 0 0 0 0 0 0 0 0 0 0 0 0 0 0 0 0 0 0 0 0 0 0 0 0 0 0 0 0 0 0 0 0 0 0 0 0 0 0 0 0 0 0 0 0 0 0 0 0 0 0 0 0 0 0 0 0 0 0 0 0 0 0 0 0 0 0 0 0 0 0 0 0 0 0 0 0 0 0 0 0 0 0 0 0 0 0 0 0 0 0 0 0 0 0 0 0 0 0 0 0 0 0 0 0 0 0 0 0 0 0 
