# vtk DataFile Version 3.0
Fibers output - vtk
ASCII
DATASET UNSTRUCTURED_GRID
POINTS 100 DOUBLE
0.580760451813436 0.313460245845549 0.43741387360437967
0.5187853199781547 0.2711720148911939 0.44105360908335867
0.4501786007613584 0.2891846868694621 0.5658431511071259
0.3798885062520567 0.24204291234565 0.6765424218800171
0.40726388219961307 0.11451177845919691 0.7458204567573141
0.3864875250366272 0.002759790860279332 0.8833775610694992
0.21481066874699362 0.14292381252639663 0.8883430063107406
0.20072409643000555 0.16175664338450224 0.9811192733341647
0.5145077622895124 0.18110610477855904 0.7657880331965314
0.6170605730470237 0.08097553107442068 0.8017361751355788
0.7642809141511575 0.01424296424692284 0.9467369622429065
0.5152212474594144 0.16158502499352256 0.995787375531515
0.3782086898333691 0.22215674102171623 0.3871914540133956
0.24120869738245265 0.16008199632832099 0.17669726681875964
0.263990228649843 0.00422111877503939 0.28073342549177127
0.20013997931530902 0.04262287909452789 0.27696996660419426
0.09574385478569669 0.06327091872067236 0.24017369585869686
0.002031110789363577 0.07970790159224006 0.15812316325844844
0.3586867068947448 0.14726898816461353 0.5709401798638052
0.39439934128257637 0.04018299572849959 0.6956309213677541
0.21205477604052902 0.004075918541306289 0.5164600828888876
0.19808275431600197 0.02724484006822514 0.7153751245457854
0.11610666661242086 0.11828705992375876 0.49509667085927933
0.06088143856190753 0.1790553452082091 0.5074422545546822
0.5985459505738475 0.2381599944855457 0.3576663171209965
0.5943485411531946 0.18056512280397352 0.30211526001987077
0.453051153321562 0.15638973631463116 0.17599970582483737
0.514016638469592 0.06611538161474229 0.07824354654793797
0.7153303174535264 0.0814415902897554 0.029343529502680377
0.699141436334735 0.27120757155627206 0.31212045621927553
0.7108598822943106 0.15233882960404432 0.3934989926178075
0.7127547911451729 0.008977015915178188 0.3288348851741415
0.6307319350558804 0.43790191817073487 0.3001801852776115
0.6366543125882037 0.43952239186596354 0.19245509442144182
0.8375184881470007 0.5991471110683461 0.06515409839755215
0.617233266779061 0.5465607317341 0.28379280763167547
0.6238150652746954 0.7006150669473864 0.12998949071572674
0.7327092751359503 0.7596786803623047 0.1180944356805611
0.7528184566444914 0.8024932930287655 0.19554573670011988
0.8388922759242623 0.9933939254942787 0.2016167198524853
0.5718847440083049 0.8805260351730324 0.21392394164783068
0.789506345278022 0.2891789766750771 0.4032305148138866
0.9058261317227899 0.2564297193089973 0.3683073768534083
0.8197022134588663 0.1945211413884007 0.30539655018839595
0.8749336045456028 0.15315266918795978 0.33282396530823244
0.8625271350766596 0.08127738611749591 0.20429648207366513
0.8760162995894076 0.11563036084195033 0.12311600468296924
0.9506303458478094 0.3846550256481982 0.5752391261217051
0.8779669135527574 0.44011230895318254 0.7897137621338082
0.8386094620308298 0.5394065009882603 0.8952507982226039
0.9865289233304644 0.49270718400056446 0.4359672749934028
0.5128096659196827 0.5162013835289355 0.349080767040037
0.46060548818298197 0.5590060211550247 0.24479572135174665
0.4075634966855066 0.4412773911690887 0.036108343441140334
0.40489638391052896 0.8058738508362301 0.2161481464537771
0.35221605126896605 0.7997882256101512 0.19281944643913873
0.26606564356007756 0.7415071702817583 0.27506299850336835
0.18302390638995103 0.8734018232829968 0.38498187558493147
0.114896796478003 0.9107946817675848 0.30291899053870086
0.15167600618440935 0.9826681505039252 0.47294006808464595
0.029607929881332984 0.9966501250930853 0.41412767227359215
0.04161915160308438 0.8846712543890858 0.1417889368786608
0.5067795295955156 0.47358513814352 0.604280257879679
0.46389588310756813 0.5524568230128014 0.5124926632406054
0.5158392709243965 0.4335303825754133 0.7597661891809484
0.5863652367702987 0.47165439429931144 0.8895322474172482
0.48160973930728523 0.6551965376465183 0.8655634553022223
0.5126398693994466 0.7937523822441697 0.9006258959514855
0.49137544725346627 0.8829964120147128 0.8975733487430462
0.2494055106140003 0.661174012858624 0.9185616985540548
0.5623616790905148 0.8896082231911618 0.6900350785798849
0.5721085359609522 0.956696847763285 0.7445425624896725
0.18353910994741174 0.7900499547766155 0.7243711265066731
0.1488402449078089 0.8536282341933111 0.6246685253038925
0.07371440090051262 0.7305908760433891 0.7529493560804935
0.12913446095597148 0.9207867525779218 0.791979641408264
0.25060071874658096 0.9430829410194537 0.8644599707906075
0.2730227657835653 0.9657677401015234 0.9116360639922814
0.22493502781220331 0.9762156385155448 0.9468516338627698
0.7288584114586565 0.5357901124441811 0.44214759422203487
0.9600882982207216 0.6639305974552272 0.5705249854093495
0.9806654620237761 0.987127066779203 0.9912368084206749
0.8136823340895545 0.8866267627325353 0.5225800499949713
0.878668244548702 0.8970903427721323 0.43829308179889814
0.9167632238599889 0.8383697050435482 0.3347621953200264
0.9413975249271886 0.9711661287485073 0.25097764217982255
0.7574233091773831 0.9591669879559691 0.3882212760795496
0.3318985860360978 0.4121125387872746 0.32121968483240015
0.24653592843715344 0.46415593343473216 0.29406672224246677
0.35254222811743274 0.33686769942424866 0.23723327111412595
0.22739057014908892 0.42293134859738335 0.36796127592298733
0.0028296900698894234 0.5501385889270102 0.6748009295476906
0.14664272323182714 0.35513863564804615 0.128343351405524
0.06840495357728948 0.3057820773463312 0.1009395233775432
0.12864563675528262 0.25538667483514543 0.031200209325846773
0.7381967791690004 0.0893603064607128 0.5728252817872282
0.7901366657094222 0.01702306719422908 0.5666254939160605
0.9240855197567364 0.2134446533369453 0.6516958609095931
0.998835406240427 0.11321681021264351 0.6058054606151385
0.9837057228676193 0.03974772886458744 0.8688028611900287
CELLS 99 297
2 1 0
2 2 1
2 3 2
2 4 3
2 5 4
2 6 3
2 7 6
2 8 2
2 9 8
2 10 9
2 11 8
2 12 1
2 13 12
2 14 12
2 15 14
2 16 15
2 17 16
2 18 1
2 19 18
2 20 18
2 21 18
2 22 18
2 23 22
2 24 0
2 25 24
2 26 25
2 27 26
2 28 25
2 29 24
2 30 24
2 31 30
2 32 0
2 33 32
2 34 33
2 35 32
2 36 35
2 37 36
2 38 37
2 39 38
2 40 36
2 41 0
2 42 41
2 43 41
2 44 43
2 45 43
2 46 45
2 47 41
2 48 47
2 49 48
2 50 41
2 51 0
2 52 51
2 53 52
2 54 52
2 55 54
2 56 52
2 57 56
2 58 57
2 59 57
2 60 57
2 61 56
2 62 0
2 63 62
2 64 62
2 65 64
2 66 62
2 67 66
2 68 67
2 69 66
2 70 62
2 71 70
2 72 62
2 73 72
2 74 72
2 75 72
2 76 72
2 77 76
2 78 77
2 79 0
2 80 79
2 81 80
2 82 79
2 83 82
2 84 83
2 85 83
2 86 82
2 87 0
2 88 87
2 89 87
2 90 87
2 91 90
2 92 87
2 93 92
2 94 92
2 95 0
2 96 95
2 97 95
2 98 97
2 99 95
CELL_TYPES 99
3
3
3
3
3
3
3
3
3
3
3
3
3
3
3
3
3
3
3
3
3
3
3
3
3
3
3
3
3
3
3
3
3
3
3
3
3
3
3
3
3
3
3
3
3
3
3
3
3
3
3
3
3
3
3
3
3
3
3
3
3
3
3
3
3
3
3
3
3
3
3
3
3
3
3
3
3
3
3
3
3
3
3
3
3
3
3
3
3
3
3
3
3
3
3
3
3
3
3
POINT_DATA 100
SCALARS path_distance float 
LOOKUP_TABLE default 
0.0
0.07511630393999906
0.21865643098463622
0.3580026646654587
0.5056950728491377
0.6841386793359658
0.6442451771431184
0.7399559015190912
0.45487069135737845
0.6026390225161747
0.8197848089637789
0.6856980707810213
0.23343692093015767
0.4921453952850419
0.5015322475509136
0.5761359549555466
0.6887363896704317
0.8143729396597835
0.3156449866627526
0.4838430337612578
0.5277139832194799
0.5627499824751917
0.5714520740666234
0.6544883537666661
0.11111311617494428
0.1912424331251959
0.3821731381725305
0.5285374650161523
0.5056728417440564
0.2263781132512182
0.25693380137902105
0.4142158635959192
0.19187486589000494
0.29977479958137615
0.5861871100570766
0.3025884511284764
0.5203762344492874
0.6448268339063553
0.7355802044682513
0.9450762919676983
0.7255827324165636
0.21291531201174035
0.33870256153088973
0.35235483607395246
0.42661195797973683
0.5100867155157125
0.5992626895280678
0.46720566151634674
0.7003469366200722
0.8505015620853157
0.4980702223790852
0.2313525792552141
0.3555817381901222
0.6009873307905923
0.6102735385643832
0.6682086792476593
0.6240375607096852
0.814758008332433
0.927779449097953
0.9584885365422202
1.0136953934861044
0.9217524549155964
0.24281175463054225
0.37120455949066433
0.4036294687953384
0.5561633404390098
0.5620062533737676
0.7082593415120633
0.8000525359403421
0.8002568521573491
0.671202314643676
0.7581905355014901
0.7108461185275611
0.8340809250362122
0.8389615507229607
0.8677629354033188
0.9288856528921847
0.9858324005824227
1.0463445934510944
0.2671815550215413
0.561065884305912
1.0919875503501357
0.6369799230245801
0.7439235907807181
0.8688955284270554
0.954895765733976
0.7997049742231901
0.2918314456072484
0.39542961941449245
0.4064685403820505
0.40682600360033894
0.8077746834719054
0.5652670693625821
0.6617460216708148
0.7056634327797842
0.30552124225584987
0.3947897438013328
0.5425278186795707
0.6757160122473924
0.693256689179244
VECTORS velocity float
0.580760 0.313460 0.437414
0.518785 0.271172 0.441054
0.450179 0.289185 0.565843
0.379889 0.242043 0.676542
0.407264 0.114512 0.745820
0.386488 0.002760 0.883378
0.214811 0.142924 0.888343
0.200724 0.161757 0.981119
0.514508 0.181106 0.765788
0.617061 0.080976 0.801736
0.764281 0.014243 0.946737
0.515221 0.161585 0.995787
0.378209 0.222157 0.387191
0.241209 0.160082 0.176697
0.263990 0.004221 0.280733
0.200140 0.042623 0.276970
0.095744 0.063271 0.240174
0.002031 0.079708 0.158123
0.358687 0.147269 0.570940
0.394399 0.040183 0.695631
0.212055 0.004076 0.516460
0.198083 0.027245 0.715375
0.116107 0.118287 0.495097
0.060881 0.179055 0.507442
0.598546 0.238160 0.357666
0.594349 0.180565 0.302115
0.453051 0.156390 0.176000
0.514017 0.066115 0.078244
0.715330 0.081442 0.029344
0.699141 0.271208 0.312120
0.710860 0.152339 0.393499
0.712755 0.008977 0.328835
0.630732 0.437902 0.300180
0.636654 0.439522 0.192455
0.837518 0.599147 0.065154
0.617233 0.546561 0.283793
0.623815 0.700615 0.129989
0.732709 0.759679 0.118094
0.752818 0.802493 0.195546
0.838892 0.993394 0.201617
0.571885 0.880526 0.213924
0.789506 0.289179 0.403231
0.905826 0.256430 0.368307
0.819702 0.194521 0.305397
0.874934 0.153153 0.332824
0.862527 0.081277 0.204296
0.876016 0.115630 0.123116
0.950630 0.384655 0.575239
0.877967 0.440112 0.789714
0.838609 0.539407 0.895251
0.986529 0.492707 0.435967
0.512810 0.516201 0.349081
0.460605 0.559006 0.244796
0.407563 0.441277 0.036108
0.404896 0.805874 0.216148
0.352216 0.799788 0.192819
0.266066 0.741507 0.275063
0.183024 0.873402 0.384982
0.114897 0.910795 0.302919
0.151676 0.982668 0.472940
0.029608 0.996650 0.414128
0.041619 0.884671 0.141789
0.506780 0.473585 0.604280
0.463896 0.552457 0.512493
0.515839 0.433530 0.759766
0.586365 0.471654 0.889532
0.481610 0.655197 0.865563
0.512640 0.793752 0.900626
0.491375 0.882996 0.897573
0.249406 0.661174 0.918562
0.562362 0.889608 0.690035
0.572109 0.956697 0.744543
0.183539 0.790050 0.724371
0.148840 0.853628 0.624669
0.073714 0.730591 0.752949
0.129134 0.920787 0.791980
0.250601 0.943083 0.864460
0.273023 0.965768 0.911636
0.224935 0.976216 0.946852
0.728858 0.535790 0.442148
0.960088 0.663931 0.570525
0.980665 0.987127 0.991237
0.813682 0.886627 0.522580
0.878668 0.897090 0.438293
0.916763 0.838370 0.334762
0.941398 0.971166 0.250978
0.757423 0.959167 0.388221
0.331899 0.412113 0.321220
0.246536 0.464156 0.294067
0.352542 0.336868 0.237233
0.227391 0.422931 0.367961
0.002830 0.550139 0.674801
0.146643 0.355139 0.128343
0.068405 0.305782 0.100940
0.128646 0.255387 0.031200
0.738197 0.089360 0.572825
0.790137 0.017023 0.566625
0.924086 0.213445 0.651696
0.998835 0.113217 0.605805
0.983706 0.039748 0.868803
