
DEAL::Checking Q1 in 1d:
object "vertices" class array type float rank 1 shape 1 items 6 data follows
0.500000	
1.00000	
0.00000	
0.250000	
0.250000	
0.500000	
object "cells" class array type int rank 1 shape 2 items 3 data follows
0	1
2	3
4	5

attribute "element type" string "lines"
attribute "ref" string "positions"
object "data" class array type float rank 1 shape 2 items 6 data follows
	0.00000	0.00000
	1.00000	0.00000
	2.00000	1.00000
	3.00000	1.00000
	3.00000	2.00000
	0.00000	2.00000
attribute "dep" string "positions"
object "deal data" class field
component "positions" value "vertices"
component "connections" value "cells"
component "data" value "data"
attribute 
end
# This file was generated by the deal.II library.


#
# For a description of the UCD format see the AVS Developer's guide.
#
6 3 2 0 0
1   0.500000 0 0 
2   1.00000 0 0 
3   0.00000 0 0 
4   0.250000 0 0 
5   0.250000 0 0 
6   0.500000 0 0 

1	0 line	1	2
2	0 line	3	4
3	0 line	5	6

2    1 1 
node_data,dimensionless
cell_data,dimensionless
1	0.00000	0.00000
2	1.00000	0.00000
3	2.00000	1.00000
4	3.00000	1.00000
5	3.00000	2.00000
6	0.00000	2.00000
gmvinput ascii

nodes 6
0.500000 1.00000 0.00000 0.250000 0.250000 0.500000 
0 0 0 0 0 0 
0 0 0 0 0 0 
cells 3
line 2
1	2
line 2
3	4
line 2
5	6
variable
node_data 1
0.00000 1.00000 2.00000 3.00000 3.00000 0.00000 

cell_data 1
0.00000 0.00000 1.00000 1.00000 2.00000 2.00000 

endvars
endgmv
# This file was generated by the deal.II library.


#
# For a description of the Tecplot format see the Tecplot documentation.
#
Variables="x", "node_data", "cell_data"
zone f=feblock, n=6, e=3, et=lineseg
0.500000
1.00000
0.00000
0.250000
0.250000
0.500000

0.00000
1.00000
2.00000
3.00000
3.00000
0.00000

0.00000
0.00000
1.00000
1.00000
2.00000
2.00000

1	2
3	4
5	6
# vtk DataFile Version 3.0
#This file was generated 
ASCII
DATASET UNSTRUCTURED_GRID

POINTS 6 double
0.500000 0 0
1.00000 0 0
0.00000 0 0
0.250000 0 0
0.250000 0 0
0.500000 0 0

CELLS 3 9
2	0	1
2	2	3
2	4	5

CELL_TYPES 3
 3 3 3
POINT_DATA 6
SCALARS node_data double 1
LOOKUP_TABLE default
0.00000 1.00000 2.00000 3.00000 3.00000 0.00000 
SCALARS cell_data double 1
LOOKUP_TABLE default
0.00000 0.00000 1.00000 1.00000 2.00000 2.00000 
# This file was generated by the deal.II library.


#
# For a description of the GNUPLOT format see the GNUPLOT manual.
#
# <x> <node_data> <cell_data> 
0.500000 0.00000 0.00000 
1.00000 1.00000 0.00000 


0.00000 2.00000 1.00000 
0.250000 3.00000 1.00000 


0.250000 3.00000 2.00000 
0.500000 0.00000 2.00000 


1 1
[deal.II intermediate format graphics data]
[written by deal.II x.y.z]
[Version: 4]
2
node_data
cell_data
3
[deal.II intermediate Patch<1,1>]
1
0.500000 1.00000 
4294967295 4294967295 
0 1
0
2 2
0.00000 1.00000 0.00000 0.00000 


[deal.II intermediate Patch<1,1>]
1
0.00000 0.250000 
4294967295 2 
1 1
0
2 2
2.00000 3.00000 1.00000 1.00000 


[deal.II intermediate Patch<1,1>]
1
0.250000 0.500000 
1 4294967295 
2 1
0
2 2
3.00000 0.00000 2.00000 2.00000 


0

DEAL::Checking Q1 in 2d:
object "vertices" class array type float rank 1 shape 2 items 28 data follows
0.500000	0.00000	
1.00000	0.00000	
0.500000	0.500000	
1.00000	0.500000	
0.00000	0.500000	
0.500000	0.500000	
0.00000	1.00000	
0.500000	1.00000	
0.500000	0.500000	
1.00000	0.500000	
0.500000	1.00000	
1.00000	1.00000	
0.00000	0.00000	
0.250000	0.00000	
0.00000	0.250000	
0.250000	0.250000	
0.250000	0.00000	
0.500000	0.00000	
0.250000	0.250000	
0.500000	0.250000	
0.00000	0.250000	
0.250000	0.250000	
0.00000	0.500000	
0.250000	0.500000	
0.250000	0.250000	
0.500000	0.250000	
0.250000	0.500000	
0.500000	0.500000	
object "cells" class array type int rank 1 shape 4 items 7 data follows
0	2	1	3
4	6	5	7
8	10	9	11
12	14	13	15
16	18	17	19
20	22	21	23
24	26	25	27

attribute "element type" string "quads"
attribute "ref" string "positions"
object "data" class array type float rank 1 shape 2 items 28 data follows
	0.00000	0.00000
	1.00000	0.00000
	2.00000	0.00000
	3.00000	0.00000
	4.00000	1.00000
	2.00000	1.00000
	5.00000	1.00000
	6.00000	1.00000
	2.00000	2.00000
	3.00000	2.00000
	6.00000	2.00000
	7.00000	2.00000
	8.00000	3.00000
	9.00000	3.00000
	10.0000	3.00000
	11.0000	3.00000
	9.00000	4.00000
	0.00000	4.00000
	11.0000	4.00000
	12.0000	4.00000
	10.0000	5.00000
	11.0000	5.00000
	4.00000	5.00000
	13.0000	5.00000
	11.0000	6.00000
	12.0000	6.00000
	13.0000	6.00000
	2.00000	6.00000
attribute "dep" string "positions"
object "deal data" class field
component "positions" value "vertices"
component "connections" value "cells"
component "data" value "data"
attribute 
end
# This file was generated by the deal.II library.


#
# For a description of the UCD format see the AVS Developer's guide.
#
28 7 2 0 0
1   0.500000 0.00000 0 
2   1.00000 0.00000 0 
3   0.500000 0.500000 0 
4   1.00000 0.500000 0 
5   0.00000 0.500000 0 
6   0.500000 0.500000 0 
7   0.00000 1.00000 0 
8   0.500000 1.00000 0 
9   0.500000 0.500000 0 
10   1.00000 0.500000 0 
11   0.500000 1.00000 0 
12   1.00000 1.00000 0 
13   0.00000 0.00000 0 
14   0.250000 0.00000 0 
15   0.00000 0.250000 0 
16   0.250000 0.250000 0 
17   0.250000 0.00000 0 
18   0.500000 0.00000 0 
19   0.250000 0.250000 0 
20   0.500000 0.250000 0 
21   0.00000 0.250000 0 
22   0.250000 0.250000 0 
23   0.00000 0.500000 0 
24   0.250000 0.500000 0 
25   0.250000 0.250000 0 
26   0.500000 0.250000 0 
27   0.250000 0.500000 0 
28   0.500000 0.500000 0 

1	0 quad	1	2	4	3
2	0 quad	5	6	8	7
3	0 quad	9	10	12	11
4	0 quad	13	14	16	15
5	0 quad	17	18	20	19
6	0 quad	21	22	24	23
7	0 quad	25	26	28	27

2    1 1 
node_data,dimensionless
cell_data,dimensionless
1	0.00000	0.00000
2	1.00000	0.00000
3	2.00000	0.00000
4	3.00000	0.00000
5	4.00000	1.00000
6	2.00000	1.00000
7	5.00000	1.00000
8	6.00000	1.00000
9	2.00000	2.00000
10	3.00000	2.00000
11	6.00000	2.00000
12	7.00000	2.00000
13	8.00000	3.00000
14	9.00000	3.00000
15	10.0000	3.00000
16	11.0000	3.00000
17	9.00000	4.00000
18	0.00000	4.00000
19	11.0000	4.00000
20	12.0000	4.00000
21	10.0000	5.00000
22	11.0000	5.00000
23	4.00000	5.00000
24	13.0000	5.00000
25	11.0000	6.00000
26	12.0000	6.00000
27	13.0000	6.00000
28	2.00000	6.00000
gmvinput ascii

nodes 28
0.500000 1.00000 0.500000 1.00000 0.00000 0.500000 0.00000 0.500000 0.500000 1.00000 0.500000 1.00000 0.00000 0.250000 0.00000 0.250000 0.250000 0.500000 0.250000 0.500000 0.00000 0.250000 0.00000 0.250000 0.250000 0.500000 0.250000 0.500000 
0.00000 0.00000 0.500000 0.500000 0.500000 0.500000 1.00000 1.00000 0.500000 0.500000 1.00000 1.00000 0.00000 0.00000 0.250000 0.250000 0.00000 0.00000 0.250000 0.250000 0.250000 0.250000 0.500000 0.500000 0.250000 0.250000 0.500000 0.500000 
0 0 0 0 0 0 0 0 0 0 0 0 0 0 0 0 0 0 0 0 0 0 0 0 0 0 0 0 
cells 7
quad 4
1	2	4	3
quad 4
5	6	8	7
quad 4
9	10	12	11
quad 4
13	14	16	15
quad 4
17	18	20	19
quad 4
21	22	24	23
quad 4
25	26	28	27
variable
node_data 1
0.00000 1.00000 2.00000 3.00000 4.00000 2.00000 5.00000 6.00000 2.00000 3.00000 6.00000 7.00000 8.00000 9.00000 10.0000 11.0000 9.00000 0.00000 11.0000 12.0000 10.0000 11.0000 4.00000 13.0000 11.0000 12.0000 13.0000 2.00000 

cell_data 1
0.00000 0.00000 0.00000 0.00000 1.00000 1.00000 1.00000 1.00000 2.00000 2.00000 2.00000 2.00000 3.00000 3.00000 3.00000 3.00000 4.00000 4.00000 4.00000 4.00000 5.00000 5.00000 5.00000 5.00000 6.00000 6.00000 6.00000 6.00000 

endvars
endgmv
# This file was generated by the deal.II library.


#
# For a description of the Tecplot format see the Tecplot documentation.
#
Variables="x", "y", "node_data", "cell_data"
zone f=feblock, n=28, e=7, et=quadrilateral
0.500000
1.00000
0.500000
1.00000
0.00000
0.500000
0.00000
0.500000
0.500000
1.00000
0.500000
1.00000
0.00000
0.250000
0.00000
0.250000
0.250000
0.500000
0.250000
0.500000
0.00000
0.250000
0.00000
0.250000
0.250000
0.500000
0.250000
0.500000

0.00000
0.00000
0.500000
0.500000
0.500000
0.500000
1.00000
1.00000
0.500000
0.500000
1.00000
1.00000
0.00000
0.00000
0.250000
0.250000
0.00000
0.00000
0.250000
0.250000
0.250000
0.250000
0.500000
0.500000
0.250000
0.250000
0.500000
0.500000

0.00000
1.00000
2.00000
3.00000
4.00000
2.00000
5.00000
6.00000
2.00000
3.00000
6.00000
7.00000
8.00000
9.00000
10.0000
11.0000
9.00000
0.00000
11.0000
12.0000
10.0000
11.0000
4.00000
13.0000
11.0000
12.0000
13.0000
2.00000

0.00000
0.00000
0.00000
0.00000
1.00000
1.00000
1.00000
1.00000
2.00000
2.00000
2.00000
2.00000
3.00000
3.00000
3.00000
3.00000
4.00000
4.00000
4.00000
4.00000
5.00000
5.00000
5.00000
5.00000
6.00000
6.00000
6.00000
6.00000

1	2	4	3
5	6	8	7
9	10	12	11
13	14	16	15
17	18	20	19
21	22	24	23
25	26	28	27
# vtk DataFile Version 3.0
#This file was generated 
ASCII
DATASET UNSTRUCTURED_GRID

POINTS 28 double
0.500000 0.00000 0
1.00000 0.00000 0
0.500000 0.500000 0
1.00000 0.500000 0
0.00000 0.500000 0
0.500000 0.500000 0
0.00000 1.00000 0
0.500000 1.00000 0
0.500000 0.500000 0
1.00000 0.500000 0
0.500000 1.00000 0
1.00000 1.00000 0
0.00000 0.00000 0
0.250000 0.00000 0
0.00000 0.250000 0
0.250000 0.250000 0
0.250000 0.00000 0
0.500000 0.00000 0
0.250000 0.250000 0
0.500000 0.250000 0
0.00000 0.250000 0
0.250000 0.250000 0
0.00000 0.500000 0
0.250000 0.500000 0
0.250000 0.250000 0
0.500000 0.250000 0
0.250000 0.500000 0
0.500000 0.500000 0

CELLS 7 35
4	0	1	3	2
4	4	5	7	6
4	8	9	11	10
4	12	13	15	14
4	16	17	19	18
4	20	21	23	22
4	24	25	27	26

CELL_TYPES 7
 9 9 9 9 9 9 9
POINT_DATA 28
SCALARS node_data double 1
LOOKUP_TABLE default
0.00000 1.00000 2.00000 3.00000 4.00000 2.00000 5.00000 6.00000 2.00000 3.00000 6.00000 7.00000 8.00000 9.00000 10.0000 11.0000 9.00000 0.00000 11.0000 12.0000 10.0000 11.0000 4.00000 13.0000 11.0000 12.0000 13.0000 2.00000 
SCALARS cell_data double 1
LOOKUP_TABLE default
0.00000 0.00000 0.00000 0.00000 1.00000 1.00000 1.00000 1.00000 2.00000 2.00000 2.00000 2.00000 3.00000 3.00000 3.00000 3.00000 4.00000 4.00000 4.00000 4.00000 5.00000 5.00000 5.00000 5.00000 6.00000 6.00000 6.00000 6.00000 
# This file was generated by the deal.II library.


#
# For a description of the GNUPLOT format see the GNUPLOT manual.
#
# <x> <y> <node_data> <cell_data> 
0.500000 0.00000 0.00000 0.00000 
1.00000 0.00000 1.00000 0.00000 

0.500000 0.500000 2.00000 0.00000 
1.00000 0.500000 3.00000 0.00000 


0.00000 0.500000 4.00000 1.00000 
0.500000 0.500000 2.00000 1.00000 

0.00000 1.00000 5.00000 1.00000 
0.500000 1.00000 6.00000 1.00000 


0.500000 0.500000 2.00000 2.00000 
1.00000 0.500000 3.00000 2.00000 

0.500000 1.00000 6.00000 2.00000 
1.00000 1.00000 7.00000 2.00000 


0.00000 0.00000 8.00000 3.00000 
0.250000 0.00000 9.00000 3.00000 

0.00000 0.250000 10.0000 3.00000 
0.250000 0.250000 11.0000 3.00000 


0.250000 0.00000 9.00000 4.00000 
0.500000 0.00000 0.00000 4.00000 

0.250000 0.250000 11.0000 4.00000 
0.500000 0.250000 12.0000 4.00000 


0.00000 0.250000 10.0000 5.00000 
0.250000 0.250000 11.0000 5.00000 

0.00000 0.500000 4.00000 5.00000 
0.250000 0.500000 13.0000 5.00000 


0.250000 0.250000 11.0000 6.00000 
0.500000 0.250000 12.0000 6.00000 

0.250000 0.500000 13.0000 6.00000 
0.500000 0.500000 2.00000 6.00000 


2 2
[deal.II intermediate format graphics data]
[written by deal.II x.y.z]
[Version: 4]
2
node_data
cell_data
7
[deal.II intermediate Patch<2,2>]
3
0.500000 0.00000 1.00000 0.00000 0.500000 0.500000 1.00000 0.500000 
4294967295 4294967295 4294967295 2 
0 1
0
2 4
0.00000 1.00000 2.00000 3.00000 0.00000 0.00000 0.00000 0.00000 


[deal.II intermediate Patch<2,2>]
3
0.00000 0.500000 0.500000 0.500000 0.00000 1.00000 0.500000 1.00000 
4294967295 2 4294967295 4294967295 
1 1
0
2 4
4.00000 2.00000 5.00000 6.00000 1.00000 1.00000 1.00000 1.00000 


[deal.II intermediate Patch<2,2>]
3
0.500000 0.500000 1.00000 0.500000 0.500000 1.00000 1.00000 1.00000 
1 4294967295 0 4294967295 
2 1
0
2 4
2.00000 3.00000 6.00000 7.00000 2.00000 2.00000 2.00000 2.00000 


[deal.II intermediate Patch<2,2>]
3
0.00000 0.00000 0.250000 0.00000 0.00000 0.250000 0.250000 0.250000 
4294967295 4 4294967295 5 
3 1
0
2 4
8.00000 9.00000 10.0000 11.0000 3.00000 3.00000 3.00000 3.00000 


[deal.II intermediate Patch<2,2>]
3
0.250000 0.00000 0.500000 0.00000 0.250000 0.250000 0.500000 0.250000 
3 4294967295 4294967295 6 
4 1
0
2 4
9.00000 0.00000 11.0000 12.0000 4.00000 4.00000 4.00000 4.00000 


[deal.II intermediate Patch<2,2>]
3
0.00000 0.250000 0.250000 0.250000 0.00000 0.500000 0.250000 0.500000 
4294967295 6 3 4294967295 
5 1
0
2 4
10.0000 11.0000 4.00000 13.0000 5.00000 5.00000 5.00000 5.00000 


[deal.II intermediate Patch<2,2>]
3
0.250000 0.250000 0.500000 0.250000 0.250000 0.500000 0.500000 0.500000 
5 4294967295 4 4294967295 
6 1
0
2 4
11.0000 12.0000 13.0000 2.00000 6.00000 6.00000 6.00000 6.00000 


0

/* This file was generated by the deal.II library.



   For a description of the POVRAY format see the POVRAY manual.
*/ 
#include "colors.inc" 
#include "textures.inc" 


camera {
  location <1,4,-7>
  look_at <0,0,0>
  angle 30
}

light_source {
  <1,4,-7>
  color Grey
}

light_source {
  <0,20,0>
  color White
}
#declare HMIN=0.00000;
#declare HMAX=13.0000;

#declare Tex=texture{
  pigment {
    gradient y
    scale y*(HMAX-HMIN)*0.100000
    color_map {
      [0.00 color Light_Purple] 
      [0.95 color Light_Purple] 
      [1.00 color White]    
} } }


mesh {
triangle {
	<0.500000,0.00000,0.00000>,
	<1.00000,1.00000,0.00000>,
	<1.00000,3.00000,0.500000>}
triangle {
	<0.500000,0.00000,0.00000>,
	<1.00000,3.00000,0.500000>,
	<0.500000,2.00000,0.500000>}
triangle {
	<0.00000,4.00000,0.500000>,
	<0.500000,2.00000,0.500000>,
	<0.500000,6.00000,1.00000>}
triangle {
	<0.00000,4.00000,0.500000>,
	<0.500000,6.00000,1.00000>,
	<0.00000,5.00000,1.00000>}
triangle {
	<0.500000,2.00000,0.500000>,
	<1.00000,3.00000,0.500000>,
	<1.00000,7.00000,1.00000>}
triangle {
	<0.500000,2.00000,0.500000>,
	<1.00000,7.00000,1.00000>,
	<0.500000,6.00000,1.00000>}
triangle {
	<0.00000,8.00000,0.00000>,
	<0.250000,9.00000,0.00000>,
	<0.250000,11.0000,0.250000>}
triangle {
	<0.00000,8.00000,0.00000>,
	<0.250000,11.0000,0.250000>,
	<0.00000,10.0000,0.250000>}
triangle {
	<0.250000,9.00000,0.00000>,
	<0.500000,0.00000,0.00000>,
	<0.500000,12.0000,0.250000>}
triangle {
	<0.250000,9.00000,0.00000>,
	<0.500000,12.0000,0.250000>,
	<0.250000,11.0000,0.250000>}
triangle {
	<0.00000,10.0000,0.250000>,
	<0.250000,11.0000,0.250000>,
	<0.250000,13.0000,0.500000>}
triangle {
	<0.00000,10.0000,0.250000>,
	<0.250000,13.0000,0.500000>,
	<0.00000,4.00000,0.500000>}
triangle {
	<0.250000,11.0000,0.250000>,
	<0.500000,12.0000,0.250000>,
	<0.500000,2.00000,0.500000>}
triangle {
	<0.250000,11.0000,0.250000>,
	<0.500000,2.00000,0.500000>,
	<0.250000,13.0000,0.500000>}
  texture {Tex}
}

%!PS-Adobe-2.0 EPSF-1.2
%%Title: deal.II Output
%%Creator: the deal.II library

%%BoundingBox: 0 0 300 2534
/m {moveto} bind def
/l {lineto} bind def
/s {setrgbcolor} bind def
/sg {setgray} bind def
/lx {lineto closepath stroke} bind def
/lf {lineto closepath fill} bind def
%%EndProlog

0.500000 setlinewidth
0.00000 sg 95.0962 0.00000 m 190.192 162.740 l 245.096 590.673 l 150.000 427.933 lf
0 sg 95.0962 0.00000 m 190.192 162.740 l 245.096 590.673 l 150.000 427.933 lx
0.00000 0.375000 0.625000 s 54.9038 835.770 m 150.000 427.933 l 204.904 1236.25 l 109.808 1073.51 lf
0 sg 54.9038 835.770 m 150.000 427.933 l 204.904 1236.25 l 109.808 1073.51 lx
0.00000 0.500000 0.500000 s 150.000 427.933 m 245.096 590.673 l 300.000 1398.99 l 204.904 1236.25 lf
0 sg 150.000 427.933 m 245.096 590.673 l 300.000 1398.99 l 204.904 1236.25 lx
1.00000 0.250000 0.250000 s 47.5481 1725.46 m 95.0962 0.00000 l 122.548 2306.08 l 75.0000 2129.62 lf
0 sg 47.5481 1725.46 m 95.0962 0.00000 l 122.548 2306.08 l 75.0000 2129.62 lx
1.00000 sg 27.4519 1953.15 m 75.0000 2129.62 l 102.452 2533.77 l 54.9038 835.770 lf
0 sg 27.4519 1953.15 m 75.0000 2129.62 l 102.452 2533.77 l 54.9038 835.770 lx
1.00000 sg 75.0000 2129.62 m 122.548 2306.08 l 150.000 427.933 l 102.452 2533.77 lf
0 sg 75.0000 2129.62 m 122.548 2306.08 l 150.000 427.933 l 102.452 2533.77 lx
1.00000 sg 0.00000 1548.99 m 47.5481 1725.46 l 75.0000 2129.62 l 27.4519 1953.15 lf
0 sg 0.00000 1548.99 m 47.5481 1725.46 l 75.0000 2129.62 l 27.4519 1953.15 lx
showpage
DEAL::Checking Q1 in 3d:
object "vertices" class array type float rank 1 shape 3 items 120 data follows
0.500000	0.00000	0.00000	
1.00000	0.00000	0.00000	
0.500000	0.500000	0.00000	
1.00000	0.500000	0.00000	
0.500000	0.00000	0.500000	
1.00000	0.00000	0.500000	
0.500000	0.500000	0.500000	
1.00000	0.500000	0.500000	
0.00000	0.500000	0.00000	
0.500000	0.500000	0.00000	
0.00000	1.00000	0.00000	
0.500000	1.00000	0.00000	
0.00000	0.500000	0.500000	
0.500000	0.500000	0.500000	
0.00000	1.00000	0.500000	
0.500000	1.00000	0.500000	
0.500000	0.500000	0.00000	
1.00000	0.500000	0.00000	
0.500000	1.00000	0.00000	
1.00000	1.00000	0.00000	
0.500000	0.500000	0.500000	
1.00000	0.500000	0.500000	
0.500000	1.00000	0.500000	
1.00000	1.00000	0.500000	
0.00000	0.00000	0.500000	
0.500000	0.00000	0.500000	
0.00000	0.500000	0.500000	
0.500000	0.500000	0.500000	
0.00000	0.00000	1.00000	
0.500000	0.00000	1.00000	
0.00000	0.500000	1.00000	
0.500000	0.500000	1.00000	
0.500000	0.00000	0.500000	
1.00000	0.00000	0.500000	
0.500000	0.500000	0.500000	
1.00000	0.500000	0.500000	
0.500000	0.00000	1.00000	
1.00000	0.00000	1.00000	
0.500000	0.500000	1.00000	
1.00000	0.500000	1.00000	
0.00000	0.500000	0.500000	
0.500000	0.500000	0.500000	
0.00000	1.00000	0.500000	
0.500000	1.00000	0.500000	
0.00000	0.500000	1.00000	
0.500000	0.500000	1.00000	
0.00000	1.00000	1.00000	
0.500000	1.00000	1.00000	
0.500000	0.500000	0.500000	
1.00000	0.500000	0.500000	
0.500000	1.00000	0.500000	
1.00000	1.00000	0.500000	
0.500000	0.500000	1.00000	
1.00000	0.500000	1.00000	
0.500000	1.00000	1.00000	
1.00000	1.00000	1.00000	
0.00000	0.00000	0.00000	
0.250000	0.00000	0.00000	
0.00000	0.250000	0.00000	
0.250000	0.250000	0.00000	
0.00000	0.00000	0.250000	
0.250000	0.00000	0.250000	
0.00000	0.250000	0.250000	
0.250000	0.250000	0.250000	
0.250000	0.00000	0.00000	
0.500000	0.00000	0.00000	
0.250000	0.250000	0.00000	
0.500000	0.250000	0.00000	
0.250000	0.00000	0.250000	
0.500000	0.00000	0.250000	
0.250000	0.250000	0.250000	
0.500000	0.250000	0.250000	
0.00000	0.250000	0.00000	
0.250000	0.250000	0.00000	
0.00000	0.500000	0.00000	
0.250000	0.500000	0.00000	
0.00000	0.250000	0.250000	
0.250000	0.250000	0.250000	
0.00000	0.500000	0.250000	
0.250000	0.500000	0.250000	
0.250000	0.250000	0.00000	
0.500000	0.250000	0.00000	
0.250000	0.500000	0.00000	
0.500000	0.500000	0.00000	
0.250000	0.250000	0.250000	
0.500000	0.250000	0.250000	
0.250000	0.500000	0.250000	
0.500000	0.500000	0.250000	
0.00000	0.00000	0.250000	
0.250000	0.00000	0.250000	
0.00000	0.250000	0.250000	
0.250000	0.250000	0.250000	
0.00000	0.00000	0.500000	
0.250000	0.00000	0.500000	
0.00000	0.250000	0.500000	
0.250000	0.250000	0.500000	
0.250000	0.00000	0.250000	
0.500000	0.00000	0.250000	
0.250000	0.250000	0.250000	
0.500000	0.250000	0.250000	
0.250000	0.00000	0.500000	
0.500000	0.00000	0.500000	
0.250000	0.250000	0.500000	
0.500000	0.250000	0.500000	
0.00000	0.250000	0.250000	
0.250000	0.250000	0.250000	
0.00000	0.500000	0.250000	
0.250000	0.500000	0.250000	
0.00000	0.250000	0.500000	
0.250000	0.250000	0.500000	
0.00000	0.500000	0.500000	
0.250000	0.500000	0.500000	
0.250000	0.250000	0.250000	
0.500000	0.250000	0.250000	
0.250000	0.500000	0.250000	
0.500000	0.500000	0.250000	
0.250000	0.250000	0.500000	
0.500000	0.250000	0.500000	
0.250000	0.500000	0.500000	
0.500000	0.500000	0.500000	
object "cells" class array type int rank 1 shape 8 items 15 data follows
0	4	2	6	1	5	3	7
8	12	10	14	9	13	11	15
16	20	18	22	17	21	19	23
24	28	26	30	25	29	27	31
32	36	34	38	33	37	35	39
40	44	42	46	41	45	43	47
48	52	50	54	49	53	51	55
56	60	58	62	57	61	59	63
64	68	66	70	65	69	67	71
72	76	74	78	73	77	75	79
80	84	82	86	81	85	83	87
88	92	90	94	89	93	91	95
96	100	98	102	97	101	99	103
104	108	106	110	105	109	107	111
112	116	114	118	113	117	115	119

attribute "element type" string "cubes"
attribute "ref" string "positions"
object "data" class array type float rank 1 shape 2 items 120 data follows
	0.00000	0.00000
	1.00000	0.00000
	2.00000	0.00000
	3.00000	0.00000
	4.00000	0.00000
	5.00000	0.00000
	6.00000	0.00000
	7.00000	0.00000
	8.00000	1.00000
	2.00000	1.00000
	9.00000	1.00000
	10.0000	1.00000
	11.0000	1.00000
	6.00000	1.00000
	12.0000	1.00000
	13.0000	1.00000
	2.00000	2.00000
	3.00000	2.00000
	10.0000	2.00000
	14.0000	2.00000
	6.00000	2.00000
	7.00000	2.00000
	13.0000	2.00000
	15.0000	2.00000
	16.0000	3.00000
	4.00000	3.00000
	11.0000	3.00000
	6.00000	3.00000
	17.0000	3.00000
	18.0000	3.00000
	19.0000	3.00000
	20.0000	3.00000
	4.00000	4.00000
	5.00000	4.00000
	6.00000	4.00000
	7.00000	4.00000
	18.0000	4.00000
	21.0000	4.00000
	20.0000	4.00000
	22.0000	4.00000
	11.0000	5.00000
	6.00000	5.00000
	12.0000	5.00000
	13.0000	5.00000
	19.0000	5.00000
	20.0000	5.00000
	23.0000	5.00000
	24.0000	5.00000
	6.00000	6.00000
	7.00000	6.00000
	13.0000	6.00000
	15.0000	6.00000
	20.0000	6.00000
	22.0000	6.00000
	24.0000	6.00000
	25.0000	6.00000
	26.0000	7.00000
	27.0000	7.00000
	28.0000	7.00000
	29.0000	7.00000
	30.0000	7.00000
	31.0000	7.00000
	32.0000	7.00000
	33.0000	7.00000
	27.0000	8.00000
	0.00000	8.00000
	29.0000	8.00000
	34.0000	8.00000
	31.0000	8.00000
	35.0000	8.00000
	33.0000	8.00000
	36.0000	8.00000
	28.0000	9.00000
	29.0000	9.00000
	8.00000	9.00000
	37.0000	9.00000
	32.0000	9.00000
	33.0000	9.00000
	38.0000	9.00000
	39.0000	9.00000
	29.0000	10.0000
	34.0000	10.0000
	37.0000	10.0000
	2.00000	10.0000
	33.0000	10.0000
	36.0000	10.0000
	39.0000	10.0000
	40.0000	10.0000
	30.0000	11.0000
	31.0000	11.0000
	32.0000	11.0000
	33.0000	11.0000
	16.0000	11.0000
	41.0000	11.0000
	42.0000	11.0000
	43.0000	11.0000
	31.0000	12.0000
	35.0000	12.0000
	33.0000	12.0000
	36.0000	12.0000
	41.0000	12.0000
	4.00000	12.0000
	43.0000	12.0000
	44.0000	12.0000
	32.0000	13.0000
	33.0000	13.0000
	38.0000	13.0000
	39.0000	13.0000
	42.0000	13.0000
	43.0000	13.0000
	11.0000	13.0000
	45.0000	13.0000
	33.0000	14.0000
	36.0000	14.0000
	39.0000	14.0000
	40.0000	14.0000
	43.0000	14.0000
	44.0000	14.0000
	45.0000	14.0000
	6.00000	14.0000
attribute "dep" string "positions"
object "deal data" class field
component "positions" value "vertices"
component "connections" value "cells"
component "data" value "data"
attribute 
end
# This file was generated by the deal.II library.


#
# For a description of the UCD format see the AVS Developer's guide.
#
120 15 2 0 0
1   0.500000 0.00000 0.00000 
2   1.00000 0.00000 0.00000 
3   0.500000 0.500000 0.00000 
4   1.00000 0.500000 0.00000 
5   0.500000 0.00000 0.500000 
6   1.00000 0.00000 0.500000 
7   0.500000 0.500000 0.500000 
8   1.00000 0.500000 0.500000 
9   0.00000 0.500000 0.00000 
10   0.500000 0.500000 0.00000 
11   0.00000 1.00000 0.00000 
12   0.500000 1.00000 0.00000 
13   0.00000 0.500000 0.500000 
14   0.500000 0.500000 0.500000 
15   0.00000 1.00000 0.500000 
16   0.500000 1.00000 0.500000 
17   0.500000 0.500000 0.00000 
18   1.00000 0.500000 0.00000 
19   0.500000 1.00000 0.00000 
20   1.00000 1.00000 0.00000 
21   0.500000 0.500000 0.500000 
22   1.00000 0.500000 0.500000 
23   0.500000 1.00000 0.500000 
24   1.00000 1.00000 0.500000 
25   0.00000 0.00000 0.500000 
26   0.500000 0.00000 0.500000 
27   0.00000 0.500000 0.500000 
28   0.500000 0.500000 0.500000 
29   0.00000 0.00000 1.00000 
30   0.500000 0.00000 1.00000 
31   0.00000 0.500000 1.00000 
32   0.500000 0.500000 1.00000 
33   0.500000 0.00000 0.500000 
34   1.00000 0.00000 0.500000 
35   0.500000 0.500000 0.500000 
36   1.00000 0.500000 0.500000 
37   0.500000 0.00000 1.00000 
38   1.00000 0.00000 1.00000 
39   0.500000 0.500000 1.00000 
40   1.00000 0.500000 1.00000 
41   0.00000 0.500000 0.500000 
42   0.500000 0.500000 0.500000 
43   0.00000 1.00000 0.500000 
44   0.500000 1.00000 0.500000 
45   0.00000 0.500000 1.00000 
46   0.500000 0.500000 1.00000 
47   0.00000 1.00000 1.00000 
48   0.500000 1.00000 1.00000 
49   0.500000 0.500000 0.500000 
50   1.00000 0.500000 0.500000 
51   0.500000 1.00000 0.500000 
52   1.00000 1.00000 0.500000 
53   0.500000 0.500000 1.00000 
54   1.00000 0.500000 1.00000 
55   0.500000 1.00000 1.00000 
56   1.00000 1.00000 1.00000 
57   0.00000 0.00000 0.00000 
58   0.250000 0.00000 0.00000 
59   0.00000 0.250000 0.00000 
60   0.250000 0.250000 0.00000 
61   0.00000 0.00000 0.250000 
62   0.250000 0.00000 0.250000 
63   0.00000 0.250000 0.250000 
64   0.250000 0.250000 0.250000 
65   0.250000 0.00000 0.00000 
66   0.500000 0.00000 0.00000 
67   0.250000 0.250000 0.00000 
68   0.500000 0.250000 0.00000 
69   0.250000 0.00000 0.250000 
70   0.500000 0.00000 0.250000 
71   0.250000 0.250000 0.250000 
72   0.500000 0.250000 0.250000 
73   0.00000 0.250000 0.00000 
74   0.250000 0.250000 0.00000 
75   0.00000 0.500000 0.00000 
76   0.250000 0.500000 0.00000 
77   0.00000 0.250000 0.250000 
78   0.250000 0.250000 0.250000 
79   0.00000 0.500000 0.250000 
80   0.250000 0.500000 0.250000 
81   0.250000 0.250000 0.00000 
82   0.500000 0.250000 0.00000 
83   0.250000 0.500000 0.00000 
84   0.500000 0.500000 0.00000 
85   0.250000 0.250000 0.250000 
86   0.500000 0.250000 0.250000 
87   0.250000 0.500000 0.250000 
88   0.500000 0.500000 0.250000 
89   0.00000 0.00000 0.250000 
90   0.250000 0.00000 0.250000 
91   0.00000 0.250000 0.250000 
92   0.250000 0.250000 0.250000 
93   0.00000 0.00000 0.500000 
94   0.250000 0.00000 0.500000 
95   0.00000 0.250000 0.500000 
96   0.250000 0.250000 0.500000 
97   0.250000 0.00000 0.250000 
98   0.500000 0.00000 0.250000 
99   0.250000 0.250000 0.250000 
100   0.500000 0.250000 0.250000 
101   0.250000 0.00000 0.500000 
102   0.500000 0.00000 0.500000 
103   0.250000 0.250000 0.500000 
104   0.500000 0.250000 0.500000 
105   0.00000 0.250000 0.250000 
106   0.250000 0.250000 0.250000 
107   0.00000 0.500000 0.250000 
108   0.250000 0.500000 0.250000 
109   0.00000 0.250000 0.500000 
110   0.250000 0.250000 0.500000 
111   0.00000 0.500000 0.500000 
112   0.250000 0.500000 0.500000 
113   0.250000 0.250000 0.250000 
114   0.500000 0.250000 0.250000 
115   0.250000 0.500000 0.250000 
116   0.500000 0.500000 0.250000 
117   0.250000 0.250000 0.500000 
118   0.500000 0.250000 0.500000 
119   0.250000 0.500000 0.500000 
120   0.500000 0.500000 0.500000 

1	0 hex	1	5	6	2	3	7	8	4
2	0 hex	9	13	14	10	11	15	16	12
3	0 hex	17	21	22	18	19	23	24	20
4	0 hex	25	29	30	26	27	31	32	28
5	0 hex	33	37	38	34	35	39	40	36
6	0 hex	41	45	46	42	43	47	48	44
7	0 hex	49	53	54	50	51	55	56	52
8	0 hex	57	61	62	58	59	63	64	60
9	0 hex	65	69	70	66	67	71	72	68
10	0 hex	73	77	78	74	75	79	80	76
11	0 hex	81	85	86	82	83	87	88	84
12	0 hex	89	93	94	90	91	95	96	92
13	0 hex	97	101	102	98	99	103	104	100
14	0 hex	105	109	110	106	107	111	112	108
15	0 hex	113	117	118	114	115	119	120	116

2    1 1 
node_data,dimensionless
cell_data,dimensionless
1	0.00000	0.00000
2	1.00000	0.00000
3	2.00000	0.00000
4	3.00000	0.00000
5	4.00000	0.00000
6	5.00000	0.00000
7	6.00000	0.00000
8	7.00000	0.00000
9	8.00000	1.00000
10	2.00000	1.00000
11	9.00000	1.00000
12	10.0000	1.00000
13	11.0000	1.00000
14	6.00000	1.00000
15	12.0000	1.00000
16	13.0000	1.00000
17	2.00000	2.00000
18	3.00000	2.00000
19	10.0000	2.00000
20	14.0000	2.00000
21	6.00000	2.00000
22	7.00000	2.00000
23	13.0000	2.00000
24	15.0000	2.00000
25	16.0000	3.00000
26	4.00000	3.00000
27	11.0000	3.00000
28	6.00000	3.00000
29	17.0000	3.00000
30	18.0000	3.00000
31	19.0000	3.00000
32	20.0000	3.00000
33	4.00000	4.00000
34	5.00000	4.00000
35	6.00000	4.00000
36	7.00000	4.00000
37	18.0000	4.00000
38	21.0000	4.00000
39	20.0000	4.00000
40	22.0000	4.00000
41	11.0000	5.00000
42	6.00000	5.00000
43	12.0000	5.00000
44	13.0000	5.00000
45	19.0000	5.00000
46	20.0000	5.00000
47	23.0000	5.00000
48	24.0000	5.00000
49	6.00000	6.00000
50	7.00000	6.00000
51	13.0000	6.00000
52	15.0000	6.00000
53	20.0000	6.00000
54	22.0000	6.00000
55	24.0000	6.00000
56	25.0000	6.00000
57	26.0000	7.00000
58	27.0000	7.00000
59	28.0000	7.00000
60	29.0000	7.00000
61	30.0000	7.00000
62	31.0000	7.00000
63	32.0000	7.00000
64	33.0000	7.00000
65	27.0000	8.00000
66	0.00000	8.00000
67	29.0000	8.00000
68	34.0000	8.00000
69	31.0000	8.00000
70	35.0000	8.00000
71	33.0000	8.00000
72	36.0000	8.00000
73	28.0000	9.00000
74	29.0000	9.00000
75	8.00000	9.00000
76	37.0000	9.00000
77	32.0000	9.00000
78	33.0000	9.00000
79	38.0000	9.00000
80	39.0000	9.00000
81	29.0000	10.0000
82	34.0000	10.0000
83	37.0000	10.0000
84	2.00000	10.0000
85	33.0000	10.0000
86	36.0000	10.0000
87	39.0000	10.0000
88	40.0000	10.0000
89	30.0000	11.0000
90	31.0000	11.0000
91	32.0000	11.0000
92	33.0000	11.0000
93	16.0000	11.0000
94	41.0000	11.0000
95	42.0000	11.0000
96	43.0000	11.0000
97	31.0000	12.0000
98	35.0000	12.0000
99	33.0000	12.0000
100	36.0000	12.0000
101	41.0000	12.0000
102	4.00000	12.0000
103	43.0000	12.0000
104	44.0000	12.0000
105	32.0000	13.0000
106	33.0000	13.0000
107	38.0000	13.0000
108	39.0000	13.0000
109	42.0000	13.0000
110	43.0000	13.0000
111	11.0000	13.0000
112	45.0000	13.0000
113	33.0000	14.0000
114	36.0000	14.0000
115	39.0000	14.0000
116	40.0000	14.0000
117	43.0000	14.0000
118	44.0000	14.0000
119	45.0000	14.0000
120	6.00000	14.0000
gmvinput ascii

nodes 120