
DEAL::Cycle 0:
DEAL::   Number of active cells:       16
DEAL::   Number of degrees of freedom: 50
<?xml version="1.0" ?> 
<!-- 
# vtk DataFile Version 3.0
#This file was generated 
-->
<VTKFile type="UnstructuredGrid" version="0.1" byte_order="LittleEndian">
<UnstructuredGrid>
<Piece NumberOfPoints="64" NumberOfCells="16" >
  <Points>
    <DataArray type="Float32" NumberOfComponents="3" format="ascii">
-1.00000 -1.00000 0
-0.500000 -1.00000 0
-1.00000 -0.500000 0
-0.500000 -0.500000 0
-0.500000 -1.00000 0
0.00000 -1.00000 0
-0.500000 -0.500000 0
0.00000 -0.500000 0
-1.00000 -0.500000 0
-0.500000 -0.500000 0
-1.00000 0.00000 0
-0.500000 0.00000 0
-0.500000 -0.500000 0
0.00000 -0.500000 0
-0.500000 0.00000 0
0.00000 0.00000 0
0.00000 -1.00000 0
0.500000 -1.00000 0
0.00000 -0.500000 0
0.500000 -0.500000 0
0.500000 -1.00000 0
1.00000 -1.00000 0
0.500000 -0.500000 0
1.00000 -0.500000 0
0.00000 -0.500000 0
0.500000 -0.500000 0
0.00000 0.00000 0
0.500000 0.00000 0
0.500000 -0.500000 0
1.00000 -0.500000 0
0.500000 0.00000 0
1.00000 0.00000 0
-1.00000 0.00000 0
-0.500000 0.00000 0
-1.00000 0.500000 0
-0.500000 0.500000 0
-0.500000 0.00000 0
0.00000 0.00000 0
-0.500000 0.500000 0
0.00000 0.500000 0
-1.00000 0.500000 0
-0.500000 0.500000 0
-1.00000 1.00000 0
-0.500000 1.00000 0
-0.500000 0.500000 0
0.00000 0.500000 0
-0.500000 1.00000 0
0.00000 1.00000 0
0.00000 0.00000 0
0.500000 0.00000 0
0.00000 0.500000 0
0.500000 0.500000 0
0.500000 0.00000 0
1.00000 0.00000 0
0.500000 0.500000 0
1.00000 0.500000 0
0.00000 0.500000 0
0.500000 0.500000 0
0.00000 1.00000 0
0.500000 1.00000 0
0.500000 0.500000 0
1.00000 0.500000 0
0.500000 1.00000 0
1.00000 1.00000 0
    </DataArray>
  </Points>

  <Cells>
    <DataArray type="Int32" Name="connectivity" format="ascii">
0	1	3	2
4	5	7	6
8	9	11	10
12	13	15	14
16	17	19	18
20	21	23	22
24	25	27	26
28	29	31	30
32	33	35	34
36	37	39	38
40	41	43	42
44	45	47	46
48	49	51	50
52	53	55	54
56	57	59	58
60	61	63	62
    </DataArray>
    <DataArray type="Int32" Name="offsets" format="ascii">
4 8 12 16 20 24 28 32 36 40 44 48 52 56 60 64 
    </DataArray>
    <DataArray type="UInt8" Name="types" format="ascii">
9 9 9 9 9 9 9 9 9 9 9 9 9 9 9 9 
    </DataArray>
  </Cells>
  <PointData Scalars="scalars">
    <DataArray type="Float32" Name="displacement" NumberOfComponents="3" format="ascii">
0.00000 0.00000 0.00000 0.00000 0.00000 0.00000 0.00000 0.00000 0.00000 0.0158134 0.0124464 0.00000 0.00000 0.00000 0.00000 0.00000 0.00000 0.00000 0.0158134 0.0124464 0.00000 0.0168406 0.0201421 0.00000 0.00000 0.00000 0.00000 0.0158134 0.0124464 0.00000 0.00000 0.00000 0.00000 0.0446849 0.0114389 0.00000 0.0158134 0.0124464 0.00000 0.0168406 0.0201421 0.00000 0.0446849 0.0114389 0.00000 0.0408088 0.0462520 0.00000 0.00000 0.00000 0.00000 0.00000 0.00000 0.00000 0.0168406 0.0201421 0.00000 0.00714111 0.00479479 0.00000 0.00000 0.00000 0.00000 0.00000 0.00000 0.00000 0.00714111 0.00479479 0.00000 0.00000 0.00000 0.00000 0.0168406 0.0201421 0.00000 0.00714111 0.00479479 0.00000 0.0408088 0.0462520 0.00000 0.0446849 0.0114389 0.00000 0.00714111 0.00479479 0.00000 0.00000 0.00000 0.00000 0.0446849 0.0114389 0.00000 0.00000 0.00000 0.00000 0.00000 0.00000 0.00000 0.0446849 0.0114389 0.00000 0.00000 0.00000 0.00000 0.00714111 0.00479479 0.00000 0.0446849 0.0114389 0.00000 0.0408088 0.0462520 0.00000 0.00714111 0.00479479 0.00000 0.0168406 0.0201421 0.00000 0.00000 0.00000 0.00000 0.00714111 0.00479479 0.00000 0.00000 0.00000 0.00000 0.00000 0.00000 0.00000 0.00714111 0.00479479 0.00000 0.0168406 0.0201421 0.00000 0.00000 0.00000 0.00000 0.00000 0.00000 0.00000 0.0408088 0.0462520 0.00000 0.0446849 0.0114389 0.00000 0.0168406 0.0201421 0.00000 0.0158134 0.0124464 0.00000 0.0446849 0.0114389 0.00000 0.00000 0.00000 0.00000 0.0158134 0.0124464 0.00000 0.00000 0.00000 0.00000 0.0168406 0.0201421 0.00000 0.0158134 0.0124464 0.00000 0.00000 0.00000 0.00000 0.00000 0.00000 0.00000 0.0158134 0.0124464 0.00000 0.00000 0.00000 0.00000 0.00000 0.00000 0.00000 0.00000 0.00000 0.00000 
    </DataArray>
    <DataArray type="Float32" Name="strain" NumberOfComponents="9" format="ascii">
0.00000 0.00000 0.00000 0.00000 0.00000 0.00000 0.00000 0.00000 0.00000 0.00000 0.0158134 0.00000 0.0158134 0.0248929 0.00000 0.00000 0.00000 0.00000 0.0316267 0.0124464 0.00000 0.0124464 0.00000 0.00000 0.00000 0.00000 0.00000 0.0316267 0.0282598 0.00000 0.0282598 0.0248929 0.00000 0.00000 0.00000 0.00000 0.00000 0.0158134 0.00000 0.0158134 0.0248929 0.00000 0.00000 0.00000 0.00000 0.00000 0.0168406 0.00000 0.0168406 0.0402843 0.00000 0.00000 0.00000 0.00000 0.00205453 0.0235091 0.00000 0.0235091 0.0248929 0.00000 0.00000 0.00000 0.00000 0.00205453 0.0245363 0.00000 0.0245363 0.0402843 0.00000 0.00000 0.00000 0.00000 0.0316267 0.0124464 0.00000 0.0124464 0.00000 0.00000 0.00000 0.00000 0.00000 0.0316267 0.0413180 0.00000 0.0413180 -0.00201503 0.00000 0.00000 0.00000 0.00000 0.0893698 0.0114389 0.00000 0.0114389 0.00000 0.00000 0.00000 0.00000 0.00000 0.0893698 0.0403105 0.00000 0.0403105 -0.00201503 0.00000 0.00000 0.00000 0.00000 0.00205453 0.0365672 0.00000 0.0365672 -0.00201503 0.00000 0.00000 0.00000 0.00000 0.00205453 0.0316639 0.00000 0.0316639 0.0522197 0.00000 0.00000 0.00000 0.00000 -0.00775222 0.0636846 0.00000 0.0636846 -0.00201503 0.00000 0.00000 0.00000 0.00000 -0.00775222 0.0587812 0.00000 0.0587812 0.0522197 0.00000 0.00000 0.00000 0.00000 0.00000 0.0168406 0.00000 0.0168406 0.0402843 0.00000 0.00000 0.00000 0.00000 0.00000 0.00714111 0.00000 0.00714111 0.00958958 0.00000 0.00000 0.00000 0.00000 -0.0193990 0.00149327 0.00000 0.00149327 0.0402843 0.00000 0.00000 0.00000 0.00000 -0.0193990 -0.00820624 0.00000 -0.00820624 0.00958958 0.00000 0.00000 0.00000 0.00000 0.00000 0.00714111 0.00000 0.00714111 0.00958958 0.00000 0.00000 0.00000 0.00000 0.00000 0.00000 0.00000 0.00000 0.00000 0.00000 0.00000 0.00000 0.00000 -0.0142822 0.00234632 0.00000 0.00234632 0.00958958 0.00000 0.00000 0.00000 0.00000 -0.0142822 -0.00479479 0.00000 -0.00479479 0.00000 0.00000 0.00000 0.00000 0.00000 -0.0193990 0.00862080 0.00000 0.00862080 0.0522197 0.00000 0.00000 0.00000 0.00000 -0.0193990 0.0221964 0.00000 0.0221964 0.0132883 0.00000 0.00000 0.00000 0.00000 0.00775222 -0.0108449 0.00000 -0.0108449 0.0522197 0.00000 0.00000 0.00000 0.00000 0.00775222 0.00273072 0.00000 0.00273072 0.0132883 0.00000 0.00000 0.00000 0.00000 -0.0142822 0.0327490 0.00000 0.0327490 0.0132883 0.00000 0.00000 0.00000 0.00000 -0.0142822 -0.00479479 0.00000 -0.00479479 0.00000 0.00000 0.00000 0.00000 0.00000 -0.0893698 0.0261049 0.00000 0.0261049 0.0132883 0.00000 0.00000 0.00000 0.00000 -0.0893698 -0.0114389 0.00000 -0.0114389 0.00000 0.00000 0.00000 0.00000 0.00000 0.0893698 0.0114389 0.00000 0.0114389 0.00000 0.00000 0.00000 0.00000 0.00000 0.0893698 -0.0261049 0.00000 -0.0261049 -0.0132883 0.00000 0.00000 0.00000 0.00000 0.0142822 0.00479479 0.00000 0.00479479 0.00000 0.00000 0.00000 0.00000 0.00000 0.0142822 -0.0327490 0.00000 -0.0327490 -0.0132883 0.00000 0.00000 0.00000 0.00000 -0.00775222 -0.00273072 0.00000 -0.00273072 -0.0132883 0.00000 0.00000 0.00000 0.00000 -0.00775222 0.0108449 0.00000 0.0108449 -0.0522197 0.00000 0.00000 0.00000 0.00000 0.0193990 -0.0221964 0.00000 -0.0221964 -0.0132883 0.00000 0.00000 0.00000 0.00000 0.0193990 -0.00862080 0.00000 -0.00862080 -0.0522197 0.00000 0.00000 0.00000 0.00000 0.0142822 0.00479479 0.00000 0.00479479 0.00000 0.00000 0.00000 0.00000 0.00000 0.0142822 -0.00234632 0.00000 -0.00234632 -0.00958958 0.00000 0.00000 0.00000 0.00000 0.00000 0.00000 0.00000 0.00000 0.00000 0.00000 0.00000 0.00000 0.00000 0.00000 -0.00714111 0.00000 -0.00714111 -0.00958958 0.00000 0.00000 0.00000 0.00000 0.0193990 0.00820624 0.00000 0.00820624 -0.00958958 0.00000 0.00000 0.00000 0.00000 0.0193990 -0.00149327 0.00000 -0.00149327 -0.0402843 0.00000 0.00000 0.00000 0.00000 0.00000 -0.00714111 0.00000 -0.00714111 -0.00958958 0.00000 0.00000 0.00000 0.00000 0.00000 -0.0168406 0.00000 -0.0168406 -0.0402843 0.00000 0.00000 0.00000 0.00000 0.00775222 -0.0587812 0.00000 -0.0587812 -0.0522197 0.00000 0.00000 0.00000 0.00000 0.00775222 -0.0636846 0.00000 -0.0636846 0.00201503 0.00000 0.00000 0.00000 0.00000 -0.00205453 -0.0316639 0.00000 -0.0316639 -0.0522197 0.00000 0.00000 0.00000 0.00000 -0.00205453 -0.0365672 0.00000 -0.0365672 0.00201503 0.00000 0.00000 0.00000 0.00000 -0.0893698 -0.0403105 0.00000 -0.0403105 0.00201503 0.00000 0.00000 0.00000 0.00000 -0.0893698 -0.0114389 0.00000 -0.0114389 0.00000 0.00000 0.00000 0.00000 0.00000 -0.0316267 -0.0413180 0.00000 -0.0413180 0.00201503 0.00000 0.00000 0.00000 0.00000 -0.0316267 -0.0124464 0.00000 -0.0124464 0.00000 0.00000 0.00000 0.00000 0.00000 -0.00205453 -0.0245363 0.00000 -0.0245363 -0.0402843 0.00000 0.00000 0.00000 0.00000 -0.00205453 -0.0235091 0.00000 -0.0235091 -0.0248929 0.00000 0.00000 0.00000 0.00000 0.00000 -0.0168406 0.00000 -0.0168406 -0.0402843 0.00000 0.00000 0.00000 0.00000 0.00000 -0.0158134 0.00000 -0.0158134 -0.0248929 0.00000 0.00000 0.00000 0.00000 -0.0316267 -0.0282598 0.00000 -0.0282598 -0.0248929 0.00000 0.00000 0.00000 0.00000 -0.0316267 -0.0124464 0.00000 -0.0124464 0.00000 0.00000 0.00000 0.00000 0.00000 0.00000 -0.0158134 0.00000 -0.0158134 -0.0248929 0.00000 0.00000 0.00000 0.00000 0.00000 0.00000 0.00000 0.00000 0.00000 0.00000 0.00000 0.00000 0.00000 
    </DataArray>
  </PointData>
 </Piece>
 </UnstructuredGrid>
</VTKFile>
