
<?xml version="1.0" ?> 
<!-- 
# vtk DataFile Version 3.0
#This file was generated 
-->
<VTKFile type="UnstructuredGrid" version="0.1" byte_order="LittleEndian">
<UnstructuredGrid>
<Piece NumberOfPoints="4" NumberOfCells="1" >
  <Points>
    <DataArray type="Float32" NumberOfComponents="3" format="ascii">
0.00000 0.00000 0
1.00000 0.00000 0
0.00000 1.00000 0
1.00000 1.00000 0
    </DataArray>
  </Points>

  <Cells>
    <DataArray type="Int32" Name="connectivity" format="ascii">
0	1	3	2
    </DataArray>
    <DataArray type="Int32" Name="offsets" format="ascii">
4 
    </DataArray>
    <DataArray type="UInt8" Name="types" format="ascii">
9 
    </DataArray>
  </Cells>
  <PointData Scalars="scalars">
    <DataArray type="Float32" Name="vector" NumberOfComponents="3" format="ascii">
1.00000 0.00000 0.00000 1.00000 0.00000 0.00000 1.00000 1.00000 0.00000 1.00000 1.00000 0.00000 
    </DataArray>
    <DataArray type="Float32" Name="tensor" NumberOfComponents="9" format="ascii">
1.00000 0.00000 0.00000 0.00000 1.00000 0.00000 0.00000 0.00000 0.00000 3.00000 0.00000 0.00000 0.00000 1.00000 0.00000 0.00000 0.00000 0.00000 1.00000 0.00000 0.00000 0.00000 3.00000 0.00000 0.00000 0.00000 0.00000 3.00000 1.00000 0.00000 1.00000 2.00000 0.00000 0.00000 0.00000 0.00000 
    </DataArray>
  </PointData>
 </Piece>
 </UnstructuredGrid>
</VTKFile>
<?xml version="1.0" ?> 
<!-- 
# vtk DataFile Version 3.0
#This file was generated 
-->
<VTKFile type="UnstructuredGrid" version="0.1" byte_order="LittleEndian">
<UnstructuredGrid>
<Piece NumberOfPoints="8" NumberOfCells="1" >
  <Points>
    <DataArray type="Float32" NumberOfComponents="3" format="ascii">
0.00000 0.00000 0.00000
1.00000 0.00000 0.00000
0.00000 1.00000 0.00000
1.00000 1.00000 0.00000
0.00000 0.00000 1.00000
1.00000 0.00000 1.00000
0.00000 1.00000 1.00000
1.00000 1.00000 1.00000
    </DataArray>
  </Points>

  <Cells>
    <DataArray type="Int32" Name="connectivity" format="ascii">
0	1	3	2	4	5	7	6
    </DataArray>
    <DataArray type="Int32" Name="offsets" format="ascii">
8 
    </DataArray>
    <DataArray type="UInt8" Name="types" format="ascii">
12 
    </DataArray>
  </Cells>
  <PointData Scalars="scalars">
    <DataArray type="Float32" Name="vector" NumberOfComponents="3" format="ascii">
1.00000 0.00000 0.00000 1.00000 0.00000 0.00000 1.00000 1.00000 0.00000 1.00000 1.00000 0.00000 1.00000 0.00000 0.00000 1.00000 0.00000 0.00000 1.00000 1.00000 0.00000 1.00000 1.00000 0.00000 
    </DataArray>
    <DataArray type="Float32" Name="tensor" NumberOfComponents="9" format="ascii">
1.00000 0.00000 0.00000 0.00000 1.00000 0.00000 0.00000 0.00000 1.00000 -2.00000 0.00000 0.00000 0.00000 -2.00000 0.00000 0.00000 0.00000 3.00000 1.00000 0.00000 0.00000 0.00000 1.00000 0.00000 0.00000 0.00000 0.00100000 2.00000 1.00000 1.00000 1.00000 2.00000 1.00000 1.00000 1.00000 3.00000 0.247186 0.490995 0.131325 0.490995 -0.371056 0.719072 0.131325 0.719072 -0.156008 0.280588 0.467439 0.934953 0.467439 0.0600321 -0.211376 0.934953 -0.211376 0.962976 0.0628610 -0.0117908 -0.667617 -0.0117908 -0.390601 -0.957805 -0.667617 -0.957805 -0.193320 0.00000 0.00000 0.00000 0.00000 0.00000 0.00000 0.00000 0.00000 0.00000 
    </DataArray>
  </PointData>
 </Piece>
 </UnstructuredGrid>
</VTKFile>
