
<?xml version="1.0" ?> 
<!-- 
# vtk DataFile Version 3.0
#This file was generated 
-->
<VTKFile type="UnstructuredGrid" version="0.1" byte_order="LittleEndian">
<UnstructuredGrid>
<Piece NumberOfPoints="384" NumberOfCells="24" >
  <Points>
    <DataArray type="Float32" NumberOfComponents="3" format="ascii">
1.00000 0.00000 0
0.984793 0.173644 0
0.939678 0.342016 0
0.866025 0.500000 0
0.916667 0.00000 0
0.902727 0.159174 0
0.861371 0.313515 0
0.793857 0.458333 0
0.833333 0.00000 0
0.820661 0.144704 0
0.783065 0.285013 0
0.721688 0.416667 0
0.750000 0.00000 0
0.738595 0.130233 0
0.704758 0.256512 0
0.649519 0.375000 0
0.866025 0.500000 0
0.766033 0.642777 0
0.642777 0.766033 0
0.500000 0.866025 0
0.793857 0.458333 0
0.702197 0.589212 0
0.589212 0.702197 0
0.458333 0.793857 0
0.721688 0.416667 0
0.638361 0.535647 0
0.535647 0.638361 0
0.416667 0.721688 0
0.649519 0.375000 0
0.574525 0.482083 0
0.482083 0.574525 0
0.375000 0.649519 0
0.750000 0.00000 0
0.738595 0.130233 0
0.704758 0.256512 0
0.649519 0.375000 0
0.666667 0.00000 0
0.656529 0.115763 0
0.626452 0.228011 0
0.577350 0.333333 0
0.583333 0.00000 0
0.574462 0.101293 0
0.548145 0.199509 0
0.505181 0.291667 0
0.500000 0.00000 0
0.492396 0.0868222 0
0.469839 0.171008 0
0.433013 0.250000 0
0.649519 0.375000 0
0.574525 0.482083 0
0.482083 0.574525 0
0.375000 0.649519 0
0.577350 0.333333 0
0.510689 0.428518 0
0.428518 0.510689 0
0.333333 0.577350 0
0.505181 0.291667 0
0.446853 0.374953 0
0.374953 0.446853 0
0.291667 0.505181 0
0.433013 0.250000 0
0.383017 0.321388 0
0.321388 0.383017 0
0.250000 0.433013 0
0.500000 0.866025 0
0.342016 0.939678 0
0.173644 0.984793 0
2.22045e-16 1.00000 0
0.458333 0.793857 0
0.313515 0.861371 0
0.159174 0.902727 0
4.32209e-16 0.916667 0
0.416667 0.721688 0
0.285013 0.783065 0
0.144704 0.820661 0
2.43177e-16 0.833333 0
0.375000 0.649519 0
0.256512 0.704758 0
0.130233 0.738595 0
3.60822e-16 0.750000 0
2.22045e-16 1.00000 0
-0.173644 0.984793 0
-0.342016 0.939678 0
-0.500000 0.866025 0
4.32209e-16 0.916667 0
-0.159174 0.902727 0
-0.313515 0.861371 0
-0.458333 0.793857 0
2.43177e-16 0.833333 0
-0.144704 0.820661 0
-0.285013 0.783065 0
-0.416667 0.721688 0
3.60822e-16 0.750000 0
-0.130233 0.738595 0
-0.256512 0.704758 0
-0.375000 0.649519 0
0.375000 0.649519 0
0.256512 0.704758 0
0.130233 0.738595 0
3.60822e-16 0.750000 0
0.333333 0.577350 0
0.228011 0.626452 0
0.115763 0.656529 0
3.31382e-16 0.666667 0
0.291667 0.505181 0
0.199509 0.548145 0
0.101293 0.574462 0
2.94661e-16 0.583333 0
0.250000 0.433013 0
0.171008 0.469839 0
0.0868222 0.492396 0
1.11022e-16 0.500000 0
3.60822e-16 0.750000 0
-0.130233 0.738595 0
-0.256512 0.704758 0
-0.375000 0.649519 0
3.31382e-16 0.666667 0
-0.115763 0.656529 0
-0.228011 0.626452 0
-0.333333 0.577350 0
2.94661e-16 0.583333 0
-0.101293 0.574462 0
-0.199509 0.548145 0
-0.291667 0.505181 0
1.11022e-16 0.500000 0
-0.0868222 0.492396 0
-0.171008 0.469839 0
-0.250000 0.433013 0
-0.500000 0.866025 0
-0.642777 0.766033 0
-0.766033 0.642777 0
-0.866025 0.500000 0
-0.458333 0.793857 0
-0.589212 0.702197 0
-0.702197 0.589212 0
-0.793857 0.458333 0
-0.416667 0.721688 0
-0.535647 0.638361 0
-0.638361 0.535647 0
-0.721688 0.416667 0
-0.375000 0.649519 0
-0.482083 0.574525 0
-0.574525 0.482083 0
-0.649519 0.375000 0
-0.866025 0.500000 0
-0.939678 0.342016 0
-0.984793 0.173644 0
-1.00000 1.11022e-16 0
-0.793857 0.458333 0
-0.861371 0.313515 0
-0.902727 0.159174 0
-0.916667 1.11022e-16 0
-0.721688 0.416667 0
-0.783065 0.285013 0
-0.820661 0.144704 0
-0.833333 1.11022e-16 0
-0.649519 0.375000 0
-0.704758 0.256512 0
-0.738595 0.130233 0
-0.750000 1.11022e-16 0
-0.375000 0.649519 0
-0.482083 0.574525 0
-0.574525 0.482083 0
-0.649519 0.375000 0
-0.333333 0.577350 0
-0.428518 0.510689 0
-0.510689 0.428518 0
-0.577350 0.333333 0
-0.291667 0.505181 0
-0.374953 0.446853 0
-0.446853 0.374953 0
-0.505181 0.291667 0
-0.250000 0.433013 0
-0.321388 0.383017 0
-0.383017 0.321388 0
-0.433013 0.250000 0
-0.649519 0.375000 0
-0.704758 0.256512 0
-0.738595 0.130233 0
-0.750000 1.11022e-16 0
-0.577350 0.333333 0
-0.626452 0.228011 0
-0.656529 0.115763 0
-0.666667 1.05225e-16 0
-0.505181 0.291667 0
-0.548145 0.199509 0
-0.574462 0.101293 0
-0.583333 6.13083e-17 0
-0.433013 0.250000 0
-0.469839 0.171008 0
-0.492396 0.0868222 0
-0.500000 5.55112e-17 0
-1.00000 1.11022e-16 0
-0.984793 -0.173644 0
-0.939678 -0.342016 0
-0.866025 -0.500000 0
-0.916667 1.11022e-16 0
-0.902727 -0.159174 0
-0.861371 -0.313515 0
-0.793857 -0.458333 0
-0.833333 1.11022e-16 0
-0.820661 -0.144704 0
-0.783065 -0.285013 0
-0.721688 -0.416667 0
-0.750000 1.11022e-16 0
-0.738595 -0.130233 0
-0.704758 -0.256512 0
-0.649519 -0.375000 0
-0.866025 -0.500000 0
-0.766033 -0.642777 0
-0.642777 -0.766033 0
-0.500000 -0.866025 0
-0.793857 -0.458333 0
-0.702197 -0.589212 0
-0.589212 -0.702197 0
-0.458333 -0.793857 0
-0.721688 -0.416667 0
-0.638361 -0.535647 0
-0.535647 -0.638361 0
-0.416667 -0.721688 0
-0.649519 -0.375000 0
-0.574525 -0.482083 0
-0.482083 -0.574525 0
-0.375000 -0.649519 0
-0.750000 1.11022e-16 0
-0.738595 -0.130233 0
-0.704758 -0.256512 0
-0.649519 -0.375000 0
-0.666667 1.05225e-16 0
-0.656529 -0.115763 0
-0.626452 -0.228011 0
-0.577350 -0.333333 0
-0.583333 6.13083e-17 0
-0.574462 -0.101293 0
-0.548145 -0.199509 0
-0.505181 -0.291667 0
-0.500000 5.55112e-17 0
-0.492396 -0.0868222 0
-0.469839 -0.171008 0
-0.433013 -0.250000 0
-0.649519 -0.375000 0
-0.574525 -0.482083 0
-0.482083 -0.574525 0
-0.375000 -0.649519 0
-0.577350 -0.333333 0
-0.510689 -0.428518 0
-0.428518 -0.510689 0
-0.333333 -0.577350 0
-0.505181 -0.291667 0
-0.446853 -0.374953 0
-0.374953 -0.446853 0
-0.291667 -0.505181 0
-0.433013 -0.250000 0
-0.383017 -0.321388 0
-0.321388 -0.383017 0
-0.250000 -0.433013 0
-0.500000 -0.866025 0
-0.342016 -0.939678 0
-0.173644 -0.984793 0
-2.22045e-16 -1.00000 0
-0.458333 -0.793857 0
-0.313515 -0.861371 0
-0.159174 -0.902727 0
-1.64477e-16 -0.916667 0
-0.416667 -0.721688 0
-0.285013 -0.783065 0
-0.144704 -0.820661 0
-1.68589e-16 -0.833333 0
-0.375000 -0.649519 0
-0.256512 -0.704758 0
-0.130233 -0.738595 0
-1.11022e-16 -0.750000 0
-1.38778e-16 -1.00000 0
0.173644 -0.984793 0
0.342016 -0.939678 0
0.500000 -0.866025 0
-1.70645e-16 -0.916667 0
0.159174 -0.902727 0
0.313515 -0.861371 0
0.458333 -0.793857 0
-1.71673e-16 -0.833333 0
0.144704 -0.820661 0
0.285013 -0.783065 0
0.416667 -0.721688 0
-1.11022e-16 -0.750000 0
0.130233 -0.738595 0
0.256512 -0.704758 0
0.375000 -0.649519 0
-0.375000 -0.649519 0
-0.256512 -0.704758 0
-0.130233 -0.738595 0
-1.11022e-16 -0.750000 0
-0.333333 -0.577350 0
-0.228011 -0.626452 0
-0.115763 -0.656529 0
-1.11022e-16 -0.666667 0
-0.291667 -0.505181 0
-0.199509 -0.548145 0
-0.101293 -0.574462 0
-1.11022e-16 -0.583333 0
-0.250000 -0.433013 0
-0.171008 -0.469839 0
-0.0868222 -0.492396 0
-1.11022e-16 -0.500000 0
-1.11022e-16 -0.750000 0
0.130233 -0.738595 0
0.256512 -0.704758 0
0.375000 -0.649519 0
-1.12564e-16 -0.666667 0
0.115763 -0.656529 0
0.228011 -0.626452 0
0.333333 -0.577350 0
-1.14106e-16 -0.583333 0
0.101293 -0.574462 0
0.199509 -0.548145 0
0.291667 -0.505181 0
-6.93889e-17 -0.500000 0
0.0868222 -0.492396 0
0.171008 -0.469839 0
0.250000 -0.433013 0
0.500000 -0.866025 0
0.642777 -0.766033 0
0.766033 -0.642777 0
0.866025 -0.500000 0
0.458333 -0.793857 0
0.589212 -0.702197 0
0.702197 -0.589212 0
0.793857 -0.458333 0
0.416667 -0.721688 0
0.535647 -0.638361 0
0.638361 -0.535647 0
0.721688 -0.416667 0
0.375000 -0.649519 0
0.482083 -0.574525 0
0.574525 -0.482083 0
0.649519 -0.375000 0
0.866025 -0.500000 0
0.939678 -0.342016 0
0.984793 -0.173644 0
1.00000 0.00000 0
0.793857 -0.458333 0
0.861371 -0.313515 0
0.902727 -0.159174 0
0.916667 0.00000 0
0.721688 -0.416667 0
0.783065 -0.285013 0
0.820661 -0.144704 0
0.833333 0.00000 0
0.649519 -0.375000 0
0.704758 -0.256512 0
0.738595 -0.130233 0
0.750000 0.00000 0
0.375000 -0.649519 0
0.482083 -0.574525 0
0.574525 -0.482083 0
0.649519 -0.375000 0
0.333333 -0.577350 0
0.428518 -0.510689 0
0.510689 -0.428518 0
0.577350 -0.333333 0
0.291667 -0.505181 0
0.374953 -0.446853 0
0.446853 -0.374953 0
0.505181 -0.291667 0
0.250000 -0.433013 0
0.321388 -0.383017 0
0.383017 -0.321388 0
0.433013 -0.250000 0
0.649519 -0.375000 0
0.704758 -0.256512 0
0.738595 -0.130233 0
0.750000 0.00000 0
0.577350 -0.333333 0
0.626452 -0.228011 0
0.656529 -0.115763 0
0.666667 0.00000 0
0.505181 -0.291667 0
0.548145 -0.199509 0
0.574462 -0.101293 0
0.583333 0.00000 0
0.433013 -0.250000 0
0.469839 -0.171008 0
0.492396 -0.0868222 0
0.500000 0.00000 0
    </DataArray>
  </Points>

  <Cells>
    <DataArray type="Int32" Name="connectivity" format="ascii">
	0	3	15	12	1	2	7	11	13	14	4	8	5	6	9	10
	16	19	31	28	17	18	23	27	29	30	20	24	21	22	25	26
	32	35	47	44	33	34	39	43	45	46	36	40	37	38	41	42
	48	51	63	60	49	50	55	59	61	62	52	56	53	54	57	58
	64	67	79	76	65	66	71	75	77	78	68	72	69	70	73	74
	80	83	95	92	81	82	87	91	93	94	84	88	85	86	89	90
	96	99	111	108	97	98	103	107	109	110	100	104	101	102	105	106
	112	115	127	124	113	114	119	123	125	126	116	120	117	118	121	122
	128	131	143	140	129	130	135	139	141	142	132	136	133	134	137	138
	144	147	159	156	145	146	151	155	157	158	148	152	149	150	153	154
	160	163	175	172	161	162	167	171	173	174	164	168	165	166	169	170
	176	179	191	188	177	178	183	187	189	190	180	184	181	182	185	186
	192	195	207	204	193	194	199	203	205	206	196	200	197	198	201	202
	208	211	223	220	209	210	215	219	221	222	212	216	213	214	217	218
	224	227	239	236	225	226	231	235	237	238	228	232	229	230	233	234
	240	243	255	252	241	242	247	251	253	254	244	248	245	246	249	250
	256	259	271	268	257	258	263	267	269	270	260	264	261	262	265	266
	272	275	287	284	273	274	279	283	285	286	276	280	277	278	281	282
	288	291	303	300	289	290	295	299	301	302	292	296	293	294	297	298
	304	307	319	316	305	306	311	315	317	318	308	312	309	310	313	314
	320	323	335	332	321	322	327	331	333	334	324	328	325	326	329	330
	336	339	351	348	337	338	343	347	349	350	340	344	341	342	345	346
	352	355	367	364	353	354	359	363	365	366	356	360	357	358	361	362
	368	371	383	380	369	370	375	379	381	382	372	376	373	374	377	378
    </DataArray>
    <DataArray type="Int32" Name="offsets" format="ascii">
16 32 48 64 80 96 112 128 144 160 176 192 208 224 240 256 272 288 304 320 336 352 368 384 
    </DataArray>
    <DataArray type="UInt8" Name="types" format="ascii">
70 70 70 70 70 70 70 70 70 70 70 70 70 70 70 70 70 70 70 70 70 70 70 70 
    </DataArray>
  </Cells>
  <PointData Scalars="scalars">
    <DataArray type="Float32" Name="square_function" format="ascii">
1.00000 1.00000 1.00000 1.00000 0.840278 0.840278 0.840278 0.840278 0.694444 0.694444 0.694444 0.694444 0.562500 0.562500 0.562500 0.562500 1.00000 1.00000 1.00000 1.00000 0.840278 0.840278 0.840278 0.840278 0.694444 0.694444 0.694444 0.694444 0.562500 0.562500 0.562500 0.562500 0.562500 0.562500 0.562500 0.562500 0.444444 0.444444 0.444444 0.444444 0.340278 0.340278 0.340278 0.340278 0.250000 0.250000 0.250000 0.250000 0.562500 0.562500 0.562500 0.562500 0.444444 0.444444 0.444444 0.444444 0.340278 0.340278 0.340278 0.340278 0.250000 0.250000 0.250000 0.250000 1.00000 1.00000 1.00000 1.00000 0.840278 0.840278 0.840278 0.840278 0.694444 0.694444 0.694444 0.694444 0.562500 0.562500 0.562500 0.562500 1.00000 1.00000 1.00000 1.00000 0.840278 0.840278 0.840278 0.840278 0.694444 0.694444 0.694444 0.694444 0.562500 0.562500 0.562500 0.562500 0.562500 0.562500 0.562500 0.562500 0.444444 0.444444 0.444444 0.444444 0.340278 0.340278 0.340278 0.340278 0.250000 0.250000 0.250000 0.250000 0.562500 0.562500 0.562500 0.562500 0.444444 0.444444 0.444444 0.444444 0.340278 0.340278 0.340278 0.340278 0.250000 0.250000 0.250000 0.250000 1.00000 1.00000 1.00000 1.00000 0.840278 0.840278 0.840278 0.840278 0.694444 0.694444 0.694444 0.694444 0.562500 0.562500 0.562500 0.562500 1.00000 1.00000 1.00000 1.00000 0.840278 0.840278 0.840278 0.840278 0.694444 0.694444 0.694444 0.694444 0.562500 0.562500 0.562500 0.562500 0.562500 0.562500 0.562500 0.562500 0.444444 0.444444 0.444444 0.444444 0.340278 0.340278 0.340278 0.340278 0.250000 0.250000 0.250000 0.250000 0.562500 0.562500 0.562500 0.562500 0.444444 0.444444 0.444444 0.444444 0.340278 0.340278 0.340278 0.340278 0.250000 0.250000 0.250000 0.250000 1.00000 1.00000 1.00000 1.00000 0.840278 0.840278 0.840278 0.840278 0.694444 0.694444 0.694444 0.694444 0.562500 0.562500 0.562500 0.562500 1.00000 1.00000 1.00000 1.00000 0.840278 0.840278 0.840278 0.840278 0.694444 0.694444 0.694444 0.694444 0.562500 0.562500 0.562500 0.562500 0.562500 0.562500 0.562500 0.562500 0.444444 0.444444 0.444444 0.444444 0.340278 0.340278 0.340278 0.340278 0.250000 0.250000 0.250000 0.250000 0.562500 0.562500 0.562500 0.562500 0.444444 0.444444 0.444444 0.444444 0.340278 0.340278 0.340278 0.340278 0.250000 0.250000 0.250000 0.250000 1.00000 1.00000 1.00000 1.00000 0.840278 0.840278 0.840278 0.840278 0.694444 0.694444 0.694444 0.694444 0.562500 0.562500 0.562500 0.562500 1.00000 1.00000 1.00000 1.00000 0.840278 0.840278 0.840278 0.840278 0.694444 0.694444 0.694444 0.694444 0.562500 0.562500 0.562500 0.562500 0.562500 0.562500 0.562500 0.562500 0.444444 0.444444 0.444444 0.444444 0.340278 0.340278 0.340278 0.340278 0.250000 0.250000 0.250000 0.250000 0.562500 0.562500 0.562500 0.562500 0.444444 0.444444 0.444444 0.444444 0.340278 0.340278 0.340278 0.340278 0.250000 0.250000 0.250000 0.250000 1.00000 1.00000 1.00000 1.00000 0.840278 0.840278 0.840278 0.840278 0.694444 0.694444 0.694444 0.694444 0.562500 0.562500 0.562500 0.562500 1.00000 1.00000 1.00000 1.00000 0.840278 0.840278 0.840278 0.840278 0.694444 0.694444 0.694444 0.694444 0.562500 0.562500 0.562500 0.562500 0.562500 0.562500 0.562500 0.562500 0.444444 0.444444 0.444444 0.444444 0.340278 0.340278 0.340278 0.340278 0.250000 0.250000 0.250000 0.250000 0.562500 0.562500 0.562500 0.562500 0.444444 0.444444 0.444444 0.444444 0.340278 0.340278 0.340278 0.340278 0.250000 0.250000 0.250000 0.250000     </DataArray>
  </PointData>
 </Piece>
 </UnstructuredGrid>
</VTKFile>
