
<?xml version="1.0" ?> 
<!-- 
# vtk DataFile Version 3.0
#This file was generated 
-->
<VTKFile type="UnstructuredGrid" version="0.1" byte_order="LittleEndian">
<UnstructuredGrid>
<Piece NumberOfPoints="384" NumberOfCells="24" >
  <Points>
    <DataArray type="Float32" NumberOfComponents="3" format="ascii">
4.26468897 2.12432313 0
4.24899006 2.30358601 0
4.20241499 2.47740507 0
4.12637997 2.64050055 0
4.18150377 2.12432313 0
4.16706991 2.28914118 0
4.12424803 2.44895434 0
4.05433941 2.59890795 0
4.09831858 2.12432313 0
4.08514977 2.27469659 0
4.04608059 2.42050362 0
3.98229885 2.55731535 0
4.01513386 2.12432313 0
4.00322962 2.26025200 0
3.96791339 2.39205313 0
3.91025853 2.51572299 0
4.12637997 2.64050055 0
4.02315235 2.78789711 0
3.89590812 2.91514134 0
3.74851179 3.01836872 0
4.05433941 2.59890795 0
3.95942998 2.73442745 0
3.84243870 2.85141873 0
3.70691919 2.94632816 0
3.98229885 2.55731535 0
3.89570737 2.68095803 0
3.78896904 2.78769612 0
3.66532660 2.87428784 0
3.91025853 2.51572299 0
3.83198476 2.62748861 0
3.73549962 2.72397351 0
3.62373400 2.80224729 0
4.01513386 2.12432313 0
4.00322962 2.26025200 0
3.96791339 2.39205313 0
3.91025853 2.51572299 0
3.93194842 2.12432313 0
3.92130923 2.24580741 0
3.88974619 2.36360240 0
3.83821797 2.47413039 0
3.84876347 2.12432313 0
3.83938909 2.23136282 0
3.81157899 2.33515167 0
3.76617742 2.43253779 0
3.76557827 2.12432313 0
3.75746918 2.21691799 0
3.73341179 2.30670118 0
3.69413710 2.39094520 0
3.91025853 2.51572299 0
3.83198476 2.62748861 0
3.73549962 2.72397351 0
3.62373400 2.80224729 0
3.83821797 2.47413039 0
3.76826215 2.57401896 0
3.68203020 2.66025090 0
3.58214140 2.73020697 0
3.76617742 2.43253779 0
3.70453954 2.52054954 0
3.62856078 2.59652853 0
3.54054880 2.65816641 0
3.69413710 2.39094520 0
3.64081693 2.46708012 0
3.57509112 2.53280592 0
3.49895620 2.58612609 0
3.74851179 3.01836872 0
3.58541608 3.09440398 0
3.41159701 3.14097881 0
3.23233438 3.15667796 0
3.70691919 2.94632816 0
3.55696535 3.01623678 0
3.39715242 3.05905867 0
3.23233438 3.07349277 0
3.66532660 2.87428784 0
3.52851486 2.93806958 0
3.38270783 2.97713852 0
3.23233438 2.99030757 0
3.62373400 2.80224729 0
3.50006413 2.85990238 0
3.36826301 2.89521837 0
3.23233438 2.90712261 0
3.23233438 3.15667796 0
3.05307174 3.14097881 0
2.87925267 3.09440398 0
2.71615696 3.01836872 0
3.23233438 3.07349277 0
3.06751633 3.05905867 0
2.90770316 3.01623678 0
2.75774956 2.94632816 0
3.23233438 2.99030757 0
3.08196092 2.97713852 0
2.93615389 2.93806958 0
2.79934216 2.87428784 0
3.23233438 2.90712261 0
3.09640551 2.89521837 0
2.96460462 2.85990238 0
2.84093475 2.80224729 0
3.62373400 2.80224729 0
3.50006413 2.85990238 0
3.36826301 2.89521837 0
3.23233438 2.90712261 0
3.58214140 2.73020697 0
3.47161341 2.78173518 0
3.35381842 2.81329823 0
3.23233438 2.82393742 0
3.54054880 2.65816641 0
3.44316292 2.70356798 0
3.33937383 2.73137808 0
3.23233438 2.74075222 0
3.49895620 2.58612609 0
3.41471219 2.62540078 0
3.32492924 2.64945793 0
3.23233438 2.65756702 0
3.23233438 2.90712261 0
3.09640551 2.89521837 0
2.96460462 2.85990238 0
2.84093475 2.80224729 0
3.23233438 2.82393742 0
3.11085033 2.81329823 0
2.99305511 2.78173518 0
2.88252735 2.73020697 0
3.23233438 2.74075222 0
3.12529492 2.73137808 0
3.02150583 2.70356798 0
2.92411995 2.65816641 0
3.23233438 2.65756702 0
3.13973951 2.64945793 0
3.04995656 2.62540078 0
2.96571231 2.58612609 0
2.71615696 3.01836872 0
2.56876063 2.91514134 0
2.44151616 2.78789711 0
2.33828902 2.64050055 0
2.75774956 2.94632816 0
2.62223005 2.85141873 0
2.50523877 2.73442745 0
2.41032934 2.59890795 0
2.79934216 2.87428784 0
2.67569947 2.78769612 0
2.56896138 2.68095803 0
2.48236990 2.55731535 0
2.84093475 2.80224729 0
2.72916913 2.72397351 0
2.63268399 2.62748861 0
2.55441022 2.51572299 0
2.33828902 2.64050055 0
2.26225352 2.47740507 0
2.21567893 2.30358601 0
2.19997954 2.12432313 0
2.41032934 2.59890795 0
2.34042072 2.44895434 0
2.29759908 2.28914118 0
2.28316474 2.12432313 0
2.48236990 2.55731535 0
2.41858792 2.42050362 0
2.37951922 2.27469659 0
2.36634994 2.12432313 0
2.55441022 2.51572299 0
2.49675512 2.39205313 0
2.46143913 2.26025200 0
2.44953513 2.12432313 0
2.84093475 2.80224729 0
2.72916913 2.72397351 0
2.63268399 2.62748861 0
2.55441022 2.51572299 0
2.88252735 2.73020697 0
2.78263855 2.66025090 0
2.69640660 2.57401896 0
2.62645078 2.47413039 0
2.92411995 2.65816641 0
2.83610797 2.59652853 0
2.76012921 2.52054954 0
2.69849110 2.43253779 0
2.96571231 2.58612609 0
2.88957739 2.53280592 0
2.82385182 2.46708012 0
2.77053165 2.39094520 0
2.55441022 2.51572299 0
2.49675512 2.39205313 0
2.46143913 2.26025200 0
2.44953513 2.12432313 0
2.62645078 2.47413039 0
2.57492256 2.36360240 0
2.54335928 2.24580741 0
2.53272009 2.12432313 0
2.69849110 2.43253779 0
2.65308976 2.33515167 0
2.62527943 2.23136282 0
2.61590528 2.12432313 0
2.77053165 2.39094520 0
2.73125696 2.30670118 0
2.70719957 2.21691799 0
2.69909048 2.12432313 0
2.19997954 2.12432313 0
2.21567893 1.94506061 0
2.26225352 1.77124155 0
2.33828902 1.60814583 0
2.28316474 2.12432313 0
2.29759908 1.95950520 0
2.34042072 1.79969215 0
2.41032934 1.64973843 0
2.36634994 2.12432313 0
2.37951922 1.97394991 0
2.41858792 1.82814276 0
2.48236990 1.69133103 0
2.44953513 2.12432313 0
2.46143913 1.98839450 0
2.49675512 1.85659349 0
2.55441022 1.73292363 0
2.33828902 1.60814583 0
2.44151616 1.46074951 0
2.56876063 1.33350503 0
2.71615696 1.23027778 0
2.41032934 1.64973843 0
2.50523877 1.51421893 0
2.62223005 1.39722764 0
2.75774956 1.30231822 0
2.48236990 1.69133103 0
2.56896138 1.56768847 0
2.67569947 1.46095026 0
2.79934216 1.37435865 0
2.55441022 1.73292363 0
2.63268399 1.62115788 0
2.72916913 1.52467287 0
2.84093475 1.44639921 0
2.44953513 2.12432313 0
2.46143913 1.98839450 0
2.49675512 1.85659349 0
2.55441022 1.73292363 0
2.53272009 2.12432313 0
2.54335928 2.00283909 0
2.57492256 1.88504410 0
2.62645078 1.77451611 0
2.61590528 2.12432313 0
2.62527943 2.01728368 0
2.65308976 1.91349471 0
2.69849110 1.81610870 0
2.69909048 2.12432313 0
2.70719957 2.03172851 0
2.73125696 1.94194531 0
2.77053165 1.85770130 0
2.55441022 1.73292363 0
2.63268399 1.62115788 0
2.72916913 1.52467287 0
2.84093475 1.44639921 0
2.62645078 1.77451611 0
2.69640660 1.67462742 0
2.78263855 1.58839548 0
2.88252735 1.51843965 0
2.69849110 1.81610870 0
2.76012921 1.72809696 0
2.83610797 1.65211809 0
2.92411995 1.59048009 0
2.77053165 1.85770130 0
2.82385182 1.78156638 0
2.88957739 1.71584070 0
2.96571231 1.66252053 0
2.71615696 1.23027778 0
2.87925267 1.15424240 0
3.05307174 1.10766780 0
3.23233438 1.09196854 0
2.75774956 1.30231822 0
2.90770316 1.23240960 0
3.06751633 1.18958783 0
3.23233438 1.17515361 0
2.79934216 1.37435865 0
2.93615389 1.31057692 0
3.08196092 1.27150798 0
3.23233438 1.25833881 0
2.84093475 1.44639921 0
2.96460462 1.38874412 0
3.09640551 1.35342813 0
3.23233438 1.34152389 0
3.23233438 1.09196854 0
3.41159701 1.10766780 0
3.58541608 1.15424240 0
3.74851179 1.23027778 0
3.23233438 1.17515361 0
3.39715242 1.18958783 0
3.55696535 1.23240960 0
3.70691919 1.30231822 0
3.23233438 1.25833881 0
3.38270783 1.27150798 0
3.52851486 1.31057692 0
3.66532660 1.37435865 0
3.23233438 1.34152389 0
3.36826301 1.35342813 0
3.50006413 1.38874412 0
3.62373400 1.44639921 0
2.84093475 1.44639921 0
2.96460462 1.38874412 0
3.09640551 1.35342813 0
3.23233438 1.34152389 0
2.88252735 1.51843965 0
2.99305511 1.46691132 0
3.11085033 1.43534827 0
3.23233438 1.42470908 0
2.92411995 1.59048009 0
3.02150583 1.54507864 0
3.12529492 1.51726842 0
3.23233438 1.50789428 0
2.96571231 1.66252053 0
3.04995656 1.62324584 0
3.13973951 1.59918857 0
3.23233438 1.59107935 0
3.23233438 1.34152389 0
3.36826301 1.35342813 0
3.50006413 1.38874412 0
3.62373400 1.44639921 0
3.23233438 1.42470908 0
3.35381842 1.43534827 0
3.47161341 1.46691132 0
3.58214140 1.51843965 0
3.23233438 1.50789428 0
3.33937383 1.51726842 0
3.44316292 1.54507864 0
3.54054880 1.59048009 0
3.23233438 1.59107935 0
3.32492924 1.59918857 0
3.41471219 1.62324584 0
3.49895620 1.66252053 0
3.74851179 1.23027778 0
3.89590812 1.33350503 0
4.02315235 1.46074951 0
4.12637997 1.60814583 0
3.70691919 1.30231822 0
3.84243870 1.39722764 0
3.95942998 1.51421893 0
4.05433941 1.64973843 0
3.66532660 1.37435865 0
3.78896904 1.46095026 0
3.89570737 1.56768847 0
3.98229885 1.69133103 0
3.62373400 1.44639921 0
3.73549962 1.52467287 0
3.83198476 1.62115788 0
3.91025853 1.73292363 0
4.12637997 1.60814583 0
4.20241499 1.77124155 0
4.24899006 1.94506061 0
4.26468897 2.12432313 0
4.05433941 1.64973843 0
4.12424803 1.79969215 0
4.16706991 1.95950520 0
4.18150377 2.12432313 0
3.98229885 1.69133103 0
4.04608059 1.82814276 0
4.08514977 1.97394991 0
4.09831858 2.12432313 0
3.91025853 1.73292363 0
3.96791339 1.85659349 0
4.00322962 1.98839450 0
4.01513386 2.12432313 0
3.62373400 1.44639921 0
3.73549962 1.52467287 0
3.83198476 1.62115788 0
3.91025853 1.73292363 0
3.58214140 1.51843965 0
3.68203020 1.58839548 0
3.76826215 1.67462742 0
3.83821797 1.77451611 0
3.54054880 1.59048009 0
3.62856078 1.65211809 0
3.70453954 1.72809696 0
3.76617742 1.81610870 0
3.49895620 1.66252053 0
3.57509112 1.71584070 0
3.64081693 1.78156638 0
3.69413710 1.85770130 0
3.91025853 1.73292363 0
3.96791339 1.85659349 0
4.00322962 1.98839450 0
4.01513386 2.12432313 0
3.83821797 1.77451611 0
3.88974619 1.88504410 0
3.92130923 2.00283909 0
3.93194842 2.12432313 0
3.76617742 1.81610870 0
3.81157899 1.91349471 0
3.83938909 2.01728368 0
3.84876347 2.12432313 0
3.69413710 1.85770130 0
3.73341179 1.94194531 0
3.75746918 2.03172851 0
3.76557827 2.12432313 0
    </DataArray>
  </Points>

  <Cells>
    <DataArray type="Int32" Name="connectivity" format="ascii">
	0	3	15	12	1	2	7	11	13	14	4	8	5	6	9	10
	16	19	31	28	17	18	23	27	29	30	20	24	21	22	25	26
	32	35	47	44	33	34	39	43	45	46	36	40	37	38	41	42
	48	51	63	60	49	50	55	59	61	62	52	56	53	54	57	58
	64	67	79	76	65	66	71	75	77	78	68	72	69	70	73	74
	80	83	95	92	81	82	87	91	93	94	84	88	85	86	89	90
	96	99	111	108	97	98	103	107	109	110	100	104	101	102	105	106
	112	115	127	124	113	114	119	123	125	126	116	120	117	118	121	122
	128	131	143	140	129	130	135	139	141	142	132	136	133	134	137	138
	144	147	159	156	145	146	151	155	157	158	148	152	149	150	153	154
	160	163	175	172	161	162	167	171	173	174	164	168	165	166	169	170
	176	179	191	188	177	178	183	187	189	190	180	184	181	182	185	186
	192	195	207	204	193	194	199	203	205	206	196	200	197	198	201	202
	208	211	223	220	209	210	215	219	221	222	212	216	213	214	217	218
	224	227	239	236	225	226	231	235	237	238	228	232	229	230	233	234
	240	243	255	252	241	242	247	251	253	254	244	248	245	246	249	250
	256	259	271	268	257	258	263	267	269	270	260	264	261	262	265	266
	272	275	287	284	273	274	279	283	285	286	276	280	277	278	281	282
	288	291	303	300	289	290	295	299	301	302	292	296	293	294	297	298
	304	307	319	316	305	306	311	315	317	318	308	312	309	310	313	314
	320	323	335	332	321	322	327	331	333	334	324	328	325	326	329	330
	336	339	351	348	337	338	343	347	349	350	340	344	341	342	345	346
	352	355	367	364	353	354	359	363	365	366	356	360	357	358	361	362
	368	371	383	380	369	370	375	379	381	382	372	376	373	374	377	378
    </DataArray>
    <DataArray type="Int32" Name="offsets" format="ascii">
16 32 48 64 80 96 112 128 144 160 176 192 208 224 240 256 272 288 304 320 336 352 368 384 
    </DataArray>
    <DataArray type="UInt8" Name="types" format="ascii">
70 70 70 70 70 70 70 70 70 70 70 70 70 70 70 70 70 70 70 70 70 70 70 70 
    </DataArray>
  </Cells>
  <PointData Scalars="scalars">
    <DataArray type="Float32" Name="square_function" format="ascii">
22.7003212 23.3604546 23.7978611 23.9992542 21.9977245 22.6046658 23.0068264 23.1919899 21.3089657 21.8627148 22.2296295 22.3985672 20.6340466 21.1346035 21.4662743 21.6189823 23.9992542 23.9581585 23.6761818 23.1618900 23.1919899 23.1542072 22.8949509 22.4221001 22.3985672 22.3640938 22.1275597 21.6961498 21.6189823 21.5878220 21.3740082 20.9840374 20.6340466 21.1346035 21.4662743 21.6189823 19.9729691 20.4203320 20.7167568 20.8532372 19.3257294 19.7199001 19.9810791 20.1013336 18.6923294 19.0333080 19.2592430 19.3632679 21.6189823 21.5878220 21.3740082 20.9840374 20.8532372 20.8253880 20.6342964 20.2857666 20.1013336 20.0767956 19.9084244 19.6013355 19.3632679 19.3420410 19.1963921 18.9307423 23.1618900 22.4305782 21.5047741 20.4126015 22.4221001 21.7497158 20.8985119 19.8943443 21.6961498 21.0826931 20.3060875 19.3899250 20.9840374 20.4295101 19.7275047 18.8993473 20.4126015 19.1870270 17.8654652 16.4880581 19.8943443 18.7675228 17.5524502 16.2860317 19.3899250 18.3618603 17.2532749 16.0978470 18.8993473 17.9700356 16.9679413 15.9235001 20.9840374 20.4295101 19.7275047 18.8993473 20.2857666 19.7901649 19.1627598 18.4226074 19.6013355 19.1646614 18.6118546 17.9597092 18.9307423 18.5529976 18.0747910 17.5106487 18.8993473 17.9700356 16.9679413 15.9235001 18.4226074 17.5920506 16.6964455 15.7629929 17.9597092 17.2279053 16.4387894 15.6163254 17.5106487 16.8775997 16.1949711 15.4834976 16.4880581 15.0966129 13.7334042 12.4398384 16.2860317 15.0067072 13.7533426 12.5640106 16.0978470 14.9306412 13.7871218 12.7020226 15.9235001 14.8684149 13.8347397 12.8538733 12.4398384 11.2553587 10.2157736 9.35265923 12.5640106 11.4749746 10.5191565 9.72559071 12.7020226 11.7084293 10.8363791 10.1123610 12.8538733 11.9557228 11.1674414 10.5129709 15.9235001 14.8684149 13.8347397 12.8538733 15.7629929 14.8200274 13.8961973 13.0195646 15.6163254 14.7854805 13.9714947 13.1990948 15.4834976 14.7647724 14.0606318 13.3924646 12.8538733 11.9557228 11.1674414 10.5129709 13.0195646 12.2168570 11.5123425 10.9274206 13.1990948 12.4918299 11.8710833 11.3557100 13.3924646 12.7806435 12.2436647 11.7978382 9.35265923 8.69252586 8.25512028 8.05372810 9.72559071 9.11864948 8.71648884 8.53132439 10.1123610 9.55861187 9.19169712 9.02276039 10.5129709 10.0124149 9.68074512 9.52803612 8.05372810 8.09482288 8.37679958 8.89109230 8.53132439 8.56910801 8.82836342 9.30121517 9.02276039 9.05723286 9.29376698 9.72517776 9.52803612 9.55919647 9.77301025 10.1629801 10.5129709 10.0124149 9.68074512 9.52803612 10.9274206 10.4800568 10.1836319 10.0471506 11.3557100 10.9615383 10.7003584 10.5801058 11.7978382 11.4568586 11.2309246 11.1268997 9.52803612 9.55919647 9.77301025 10.1629801 10.0471506 10.0750008 10.2660923 10.6146221 10.5801058 10.6046438 10.7730141 11.0801039 11.1268997 11.1481266 11.2937756 11.5594244 8.89109230 9.62240410 10.5482073 11.6403809 9.30121517 9.97359943 10.8248034 11.8289719 9.72517776 10.3386345 11.1152391 12.0314016 10.1629801 10.7175093 11.4195137 12.2476721 11.6403809 12.8659544 14.1875172 15.5649233 11.8289719 12.9557915 14.1708641 15.4372826 12.0314016 13.0594673 14.1680517 15.3234806 12.2476721 13.1769829 14.1790781 15.2235184 10.1629801 10.7175093 11.4195137 12.2476721 10.6146221 11.1102228 11.7376289 12.4777813 11.0801039 11.5167770 12.0695829 12.7217302 11.5594244 11.9371700 12.4153767 12.9795189 12.2476721 13.1769829 14.1790781 15.2235184 12.4777813 13.3083382 14.2039442 15.1373959 12.7217302 13.4535322 14.2426500 15.0651131 12.9795189 13.6125669 14.2951956 15.0066690 15.5649233 16.9563694 18.3195782 19.6131439 15.4372826 16.7166080 17.9699726 19.1593037 15.3234806 16.4906864 17.6342049 18.7193050 15.2235184 16.2786045 17.3122787 18.2931442 19.6131439 20.7976227 21.8372078 22.7003212 19.1593037 20.2483406 21.2041588 21.9977245 18.7193050 19.7128983 20.5849476 21.3089657 18.2931442 19.1912956 19.9795780 20.6340466 15.2235184 16.2786045 17.3122787 18.2931442 15.1373959 16.0803604 17.0041924 17.8808250 15.0651131 15.8959579 16.7099438 17.4823437 15.0066690 15.7253952 16.4295349 17.0977020 18.2931442 19.1912956 19.9795780 20.6340466 17.8808250 18.6835327 19.3880463 19.9729691 17.4823437 18.1896076 18.8103542 19.3257294 17.0977020 17.7095242 18.2465019 18.6923294     </DataArray>
  </PointData>
 </Piece>
 </UnstructuredGrid>
</VTKFile>
