
DEAL:2d::Refining cell 3
DEAL:2d::Checksum: 845349260
<?xml version="1.0"?>
<VTKFile type="PUnstructuredGrid" version="0.1" byte_order="LittleEndian">
  <PUnstructuredGrid GhostLevel="0">
    <PPoints>
      <PDataArray type="Float32" Name="Position" NumberOfComponents="3" format="ascii"/>
    </PPoints>
    <PCellData Scalars="mpirank,treeid">
      <PDataArray type="Int32" Name="mpirank" format="ascii"/>
      <PDataArray type="Int32" Name="treeid" format="ascii"/>
    </PCellData>
    <PPointData>
    </PPointData>
    <Piece Source="1_0000.vtu"/>
  </PUnstructuredGrid>
</VTKFile>

<?xml version="1.0"?>
<VTKFile type="UnstructuredGrid" version="0.1" byte_order="LittleEndian">
  <UnstructuredGrid>
    <Piece NumberOfPoints="28" NumberOfCells="7">
      <Points>
        <DataArray type="Float32" Name="Position" NumberOfComponents="3" format="ascii">
            1.25000002e-02   1.25000002e-02   0.00000000e+00
            4.87500012e-01   1.25000002e-02   0.00000000e+00
            1.25000002e-02   4.87500012e-01   0.00000000e+00
            4.87500012e-01   4.87500012e-01   0.00000000e+00
            5.12499988e-01   1.25000002e-02   0.00000000e+00
            9.87500012e-01   1.25000002e-02   0.00000000e+00
            5.12499988e-01   4.87500012e-01   0.00000000e+00
            9.87500012e-01   4.87500012e-01   0.00000000e+00
            1.25000002e-02   5.12499988e-01   0.00000000e+00
            4.87500012e-01   5.12499988e-01   0.00000000e+00
            1.25000002e-02   9.87500012e-01   0.00000000e+00
            4.87500012e-01   9.87500012e-01   0.00000000e+00
            5.06250024e-01   5.06250024e-01   0.00000000e+00
            7.43749976e-01   5.06250024e-01   0.00000000e+00
            5.06250024e-01   7.43749976e-01   0.00000000e+00
            7.43749976e-01   7.43749976e-01   0.00000000e+00
            7.56250024e-01   5.06250024e-01   0.00000000e+00
            9.93749976e-01   5.06250024e-01   0.00000000e+00
            7.56250024e-01   7.43749976e-01   0.00000000e+00
            9.93749976e-01   7.43749976e-01   0.00000000e+00
            5.06250024e-01   7.56250024e-01   0.00000000e+00
            7.43749976e-01   7.56250024e-01   0.00000000e+00
            5.06250024e-01   9.93749976e-01   0.00000000e+00
            7.43749976e-01   9.93749976e-01   0.00000000e+00
            7.56250024e-01   7.56250024e-01   0.00000000e+00
            9.93749976e-01   7.56250024e-01   0.00000000e+00
            7.56250024e-01   9.93749976e-01   0.00000000e+00
            9.93749976e-01   9.93749976e-01   0.00000000e+00
        </DataArray>
      </Points>
      <Cells>
        <DataArray type="Int32" Name="connectivity" format="ascii">
          0 1 2 3
          4 5 6 7
          8 9 10 11
          12 13 14 15
          16 17 18 19
          20 21 22 23
          24 25 26 27
        </DataArray>
        <DataArray type="Int32" Name="offsets" format="ascii">
          4 8 12 16 20 24 28
        </DataArray>
        <DataArray type="UInt8" Name="types" format="ascii">
          8 8 8 8 8 8 8
        </DataArray>
      </Cells>
      <CellData Scalars="mpirank,treeid">
        <DataArray type="Int32" Name="mpirank" format="ascii">
          0 0 0 0 0 0 0
        </DataArray>
        <DataArray type="Int32" Name="treeid" format="ascii">
          0 0 0 0 0 0 0
        </DataArray>
      </CellData>
      <PointData>
      </PointData>
    </Piece>
  </UnstructuredGrid>
</VTKFile>

DEAL:2d::
DEAL:2d::0 Number of cells: 7 7
DEAL:2d::Refining cell 4
DEAL:2d::Checksum: 3572237133
<?xml version="1.0"?>
<VTKFile type="PUnstructuredGrid" version="0.1" byte_order="LittleEndian">
  <PUnstructuredGrid GhostLevel="0">
    <PPoints>
      <PDataArray type="Float32" Name="Position" NumberOfComponents="3" format="ascii"/>
    </PPoints>
    <PCellData Scalars="mpirank,treeid">
      <PDataArray type="Int32" Name="mpirank" format="ascii"/>
      <PDataArray type="Int32" Name="treeid" format="ascii"/>
    </PCellData>
    <PPointData>
    </PPointData>
    <Piece Source="1_0000.vtu"/>
  </PUnstructuredGrid>
</VTKFile>

<?xml version="1.0"?>
<VTKFile type="UnstructuredGrid" version="0.1" byte_order="LittleEndian">
  <UnstructuredGrid>
    <Piece NumberOfPoints="52" NumberOfCells="13">
      <Points>
        <DataArray type="Float32" Name="Position" NumberOfComponents="3" format="ascii">
            1.25000002e-02   1.25000002e-02   0.00000000e+00
            4.87500012e-01   1.25000002e-02   0.00000000e+00
            1.25000002e-02   4.87500012e-01   0.00000000e+00
            4.87500012e-01   4.87500012e-01   0.00000000e+00
            5.06250024e-01   6.25000009e-03   0.00000000e+00
            7.43749976e-01   6.25000009e-03   0.00000000e+00
            5.06250024e-01   2.43750006e-01   0.00000000e+00
            7.43749976e-01   2.43750006e-01   0.00000000e+00
            7.56250024e-01   6.25000009e-03   0.00000000e+00
            9.93749976e-01   6.25000009e-03   0.00000000e+00
            7.56250024e-01   2.43750006e-01   0.00000000e+00
            9.93749976e-01   2.43750006e-01   0.00000000e+00
            5.06250024e-01   2.56249994e-01   0.00000000e+00
            7.43749976e-01   2.56249994e-01   0.00000000e+00
            5.06250024e-01   4.93750006e-01   0.00000000e+00
            7.43749976e-01   4.93750006e-01   0.00000000e+00
            7.56250024e-01   2.56249994e-01   0.00000000e+00
            9.93749976e-01   2.56249994e-01   0.00000000e+00
            7.56250024e-01   4.93750006e-01   0.00000000e+00
            9.93749976e-01   4.93750006e-01   0.00000000e+00
            1.25000002e-02   5.12499988e-01   0.00000000e+00
            4.87500012e-01   5.12499988e-01   0.00000000e+00
            1.25000002e-02   9.87500012e-01   0.00000000e+00
            4.87500012e-01   9.87500012e-01   0.00000000e+00
            5.06250024e-01   5.06250024e-01   0.00000000e+00
            7.43749976e-01   5.06250024e-01   0.00000000e+00
            5.06250024e-01   7.43749976e-01   0.00000000e+00
            7.43749976e-01   7.43749976e-01   0.00000000e+00
            7.53125012e-01   5.03125012e-01   0.00000000e+00
            8.71874988e-01   5.03125012e-01   0.00000000e+00
            7.53125012e-01   6.21874988e-01   0.00000000e+00
            8.71874988e-01   6.21874988e-01   0.00000000e+00
            8.78125012e-01   5.03125012e-01   0.00000000e+00
            9.96874988e-01   5.03125012e-01   0.00000000e+00
            8.78125012e-01   6.21874988e-01   0.00000000e+00
            9.96874988e-01   6.21874988e-01   0.00000000e+00
            7.53125012e-01   6.28125012e-01   0.00000000e+00
            8.71874988e-01   6.28125012e-01   0.00000000e+00
            7.53125012e-01   7.46874988e-01   0.00000000e+00
            8.71874988e-01   7.46874988e-01   0.00000000e+00
            8.78125012e-01   6.28125012e-01   0.00000000e+00
            9.96874988e-01   6.28125012e-01   0.00000000e+00
            8.78125012e-01   7.46874988e-01   0.00000000e+00
            9.96874988e-01   7.46874988e-01   0.00000000e+00
            5.06250024e-01   7.56250024e-01   0.00000000e+00
            7.43749976e-01   7.56250024e-01   0.00000000e+00
            5.06250024e-01   9.93749976e-01   0.00000000e+00
            7.43749976e-01   9.93749976e-01   0.00000000e+00
            7.56250024e-01   7.56250024e-01   0.00000000e+00
            9.93749976e-01   7.56250024e-01   0.00000000e+00
            7.56250024e-01   9.93749976e-01   0.00000000e+00
            9.93749976e-01   9.93749976e-01   0.00000000e+00
        </DataArray>
      </Points>
      <Cells>
        <DataArray type="Int32" Name="connectivity" format="ascii">
          0 1 2 3
          4 5 6 7
          8 9 10 11
          12 13 14 15
          16 17 18 19
          20 21 22 23
          24 25 26 27
          28 29 30 31
          32 33 34 35
          36 37 38 39
          40 41 42 43
          44 45 46 47
          48 49 50 51
        </DataArray>
        <DataArray type="Int32" Name="offsets" format="ascii">
          4 8 12 16 20 24 28 32
          36 40 44 48 52
        </DataArray>
        <DataArray type="UInt8" Name="types" format="ascii">
          8 8 8 8 8 8 8 8 8 8 8 8 8
        </DataArray>
      </Cells>
      <CellData Scalars="mpirank,treeid">
        <DataArray type="Int32" Name="mpirank" format="ascii">
          0 0 0 0 0 0 0 0 0 0 0 0 0
        </DataArray>
        <DataArray type="Int32" Name="treeid" format="ascii">
          0 0 0 0 0 0 0 0 0 0 0 0 0
        </DataArray>
      </CellData>
      <PointData>
      </PointData>
    </Piece>
  </UnstructuredGrid>
</VTKFile>

DEAL:2d::
DEAL:2d::1 Number of cells: 13 13
DEAL:2d::Refining cell 11
DEAL:2d::Checksum: 85461166
<?xml version="1.0"?>
<VTKFile type="PUnstructuredGrid" version="0.1" byte_order="LittleEndian">
  <PUnstructuredGrid GhostLevel="0">
    <PPoints>
      <PDataArray type="Float32" Name="Position" NumberOfComponents="3" format="ascii"/>
    </PPoints>
    <PCellData Scalars="mpirank,treeid">
      <PDataArray type="Int32" Name="mpirank" format="ascii"/>
      <PDataArray type="Int32" Name="treeid" format="ascii"/>
    </PCellData>
    <PPointData>
    </PPointData>
    <Piece Source="1_0000.vtu"/>
  </PUnstructuredGrid>
</VTKFile>

<?xml version="1.0"?>
<VTKFile type="UnstructuredGrid" version="0.1" byte_order="LittleEndian">
  <UnstructuredGrid>
    <Piece NumberOfPoints="124" NumberOfCells="31">
      <Points>
        <DataArray type="Float32" Name="Position" NumberOfComponents="3" format="ascii">
            6.25000009e-03   6.25000009e-03   0.00000000e+00
            2.43750006e-01   6.25000009e-03   0.00000000e+00
            6.25000009e-03   2.43750006e-01   0.00000000e+00
            2.43750006e-01   2.43750006e-01   0.00000000e+00
            2.56249994e-01   6.25000009e-03   0.00000000e+00
            4.93750006e-01   6.25000009e-03   0.00000000e+00
            2.56249994e-01   2.43750006e-01   0.00000000e+00
            4.93750006e-01   2.43750006e-01   0.00000000e+00
            6.25000009e-03   2.56249994e-01   0.00000000e+00
            2.43750006e-01   2.56249994e-01   0.00000000e+00
            6.25000009e-03   4.93750006e-01   0.00000000e+00
            2.43750006e-01   4.93750006e-01   0.00000000e+00
            2.56249994e-01   2.56249994e-01   0.00000000e+00
            4.93750006e-01   2.56249994e-01   0.00000000e+00
            2.56249994e-01   4.93750006e-01   0.00000000e+00
            4.93750006e-01   4.93750006e-01   0.00000000e+00
            5.06250024e-01   6.25000009e-03   0.00000000e+00
            7.43749976e-01   6.25000009e-03   0.00000000e+00
            5.06250024e-01   2.43750006e-01   0.00000000e+00
            7.43749976e-01   2.43750006e-01   0.00000000e+00
            7.56250024e-01   6.25000009e-03   0.00000000e+00
            9.93749976e-01   6.25000009e-03   0.00000000e+00
            7.56250024e-01   2.43750006e-01   0.00000000e+00
            9.93749976e-01   2.43750006e-01   0.00000000e+00
            5.06250024e-01   2.56249994e-01   0.00000000e+00
            7.43749976e-01   2.56249994e-01   0.00000000e+00
            5.06250024e-01   4.93750006e-01   0.00000000e+00
            7.43749976e-01   4.93750006e-01   0.00000000e+00
            7.56250024e-01   2.56249994e-01   0.00000000e+00
            9.93749976e-01   2.56249994e-01   0.00000000e+00
            7.56250024e-01   4.93750006e-01   0.00000000e+00
            9.93749976e-01   4.93750006e-01   0.00000000e+00
            6.25000009e-03   5.06250024e-01   0.00000000e+00
            2.43750006e-01   5.06250024e-01   0.00000000e+00
            6.25000009e-03   7.43749976e-01   0.00000000e+00
            2.43750006e-01   7.43749976e-01   0.00000000e+00
            2.56249994e-01   5.06250024e-01   0.00000000e+00
            4.93750006e-01   5.06250024e-01   0.00000000e+00
            2.56249994e-01   7.43749976e-01   0.00000000e+00
            4.93750006e-01   7.43749976e-01   0.00000000e+00
            6.25000009e-03   7.56250024e-01   0.00000000e+00
            2.43750006e-01   7.56250024e-01   0.00000000e+00
            6.25000009e-03   9.93749976e-01   0.00000000e+00
            2.43750006e-01   9.93749976e-01   0.00000000e+00
            2.56249994e-01   7.56250024e-01   0.00000000e+00
            4.93750006e-01   7.56250024e-01   0.00000000e+00
            2.56249994e-01   9.93749976e-01   0.00000000e+00
            4.93750006e-01   9.93749976e-01   0.00000000e+00
            5.03125012e-01   5.03125012e-01   0.00000000e+00
            6.21874988e-01   5.03125012e-01   0.00000000e+00
            5.03125012e-01   6.21874988e-01   0.00000000e+00
            6.21874988e-01   6.21874988e-01   0.00000000e+00
            6.28125012e-01   5.03125012e-01   0.00000000e+00
            7.46874988e-01   5.03125012e-01   0.00000000e+00
            6.28125012e-01   6.21874988e-01   0.00000000e+00
            7.46874988e-01   6.21874988e-01   0.00000000e+00
            5.03125012e-01   6.28125012e-01   0.00000000e+00
            6.21874988e-01   6.28125012e-01   0.00000000e+00
            5.03125012e-01   7.46874988e-01   0.00000000e+00
            6.21874988e-01   7.46874988e-01   0.00000000e+00
            6.28125012e-01   6.28125012e-01   0.00000000e+00
            7.46874988e-01   6.28125012e-01   0.00000000e+00
            6.28125012e-01   7.46874988e-01   0.00000000e+00
            7.46874988e-01   7.46874988e-01   0.00000000e+00
            7.53125012e-01   5.03125012e-01   0.00000000e+00
            8.71874988e-01   5.03125012e-01   0.00000000e+00
            7.53125012e-01   6.21874988e-01   0.00000000e+00
            8.71874988e-01   6.21874988e-01   0.00000000e+00
            8.78125012e-01   5.03125012e-01   0.00000000e+00
            9.96874988e-01   5.03125012e-01   0.00000000e+00
            8.78125012e-01   6.21874988e-01   0.00000000e+00
            9.96874988e-01   6.21874988e-01   0.00000000e+00
            7.51562476e-01   6.26562476e-01   0.00000000e+00
            8.10937524e-01   6.26562476e-01   0.00000000e+00
            7.51562476e-01   6.85937524e-01   0.00000000e+00
            8.10937524e-01   6.85937524e-01   0.00000000e+00
            8.14062476e-01   6.26562476e-01   0.00000000e+00
            8.73437524e-01   6.26562476e-01   0.00000000e+00
            8.14062476e-01   6.85937524e-01   0.00000000e+00
            8.73437524e-01   6.85937524e-01   0.00000000e+00
            7.51562476e-01   6.89062476e-01   0.00000000e+00
            8.10937524e-01   6.89062476e-01   0.00000000e+00
            7.51562476e-01   7.48437524e-01   0.00000000e+00
            8.10937524e-01   7.48437524e-01   0.00000000e+00
            8.14062476e-01   6.89062476e-01   0.00000000e+00
            8.73437524e-01   6.89062476e-01   0.00000000e+00
            8.14062476e-01   7.48437524e-01   0.00000000e+00
            8.73437524e-01   7.48437524e-01   0.00000000e+00
            8.78125012e-01   6.28125012e-01   0.00000000e+00
            9.96874988e-01   6.28125012e-01   0.00000000e+00
            8.78125012e-01   7.46874988e-01   0.00000000e+00
            9.96874988e-01   7.46874988e-01   0.00000000e+00
            5.03125012e-01   7.53125012e-01   0.00000000e+00
            6.21874988e-01   7.53125012e-01   0.00000000e+00
            5.03125012e-01   8.71874988e-01   0.00000000e+00
            6.21874988e-01   8.71874988e-01   0.00000000e+00
            6.28125012e-01   7.53125012e-01   0.00000000e+00
            7.46874988e-01   7.53125012e-01   0.00000000e+00
            6.28125012e-01   8.71874988e-01   0.00000000e+00
            7.46874988e-01   8.71874988e-01   0.00000000e+00
            5.03125012e-01   8.78125012e-01   0.00000000e+00
            6.21874988e-01   8.78125012e-01   0.00000000e+00
            5.03125012e-01   9.96874988e-01   0.00000000e+00
            6.21874988e-01   9.96874988e-01   0.00000000e+00
            6.28125012e-01   8.78125012e-01   0.00000000e+00
            7.46874988e-01   8.78125012e-01   0.00000000e+00
            6.28125012e-01   9.96874988e-01   0.00000000e+00
            7.46874988e-01   9.96874988e-01   0.00000000e+00
            7.53125012e-01   7.53125012e-01   0.00000000e+00
            8.71874988e-01   7.53125012e-01   0.00000000e+00
            7.53125012e-01   8.71874988e-01   0.00000000e+00
            8.71874988e-01   8.71874988e-01   0.00000000e+00
            8.78125012e-01   7.53125012e-01   0.00000000e+00
            9.96874988e-01   7.53125012e-01   0.00000000e+00
            8.78125012e-01   8.71874988e-01   0.00000000e+00
            9.96874988e-01   8.71874988e-01   0.00000000e+00
            7.53125012e-01   8.78125012e-01   0.00000000e+00
            8.71874988e-01   8.78125012e-01   0.00000000e+00
            7.53125012e-01   9.96874988e-01   0.00000000e+00
            8.71874988e-01   9.96874988e-01   0.00000000e+00
            8.78125012e-01   8.78125012e-01   0.00000000e+00
            9.96874988e-01   8.78125012e-01   0.00000000e+00
            8.78125012e-01   9.96874988e-01   0.00000000e+00
            9.96874988e-01   9.96874988e-01   0.00000000e+00
        </DataArray>
      </Points>
      <Cells>
        <DataArray type="Int32" Name="connectivity" format="ascii">
          0 1 2 3
          4 5 6 7
          8 9 10 11
          12 13 14 15
          16 17 18 19
          20 21 22 23
          24 25 26 27
          28 29 30 31
          32 33 34 35
          36 37 38 39
          40 41 42 43
          44 45 46 47
          48 49 50 51
          52 53 54 55
          56 57 58 59
          60 61 62 63
          64 65 66 67
          68 69 70 71
          72 73 74 75
          76 77 78 79
          80 81 82 83
          84 85 86 87
          88 89 90 91
          92 93 94 95
          96 97 98 99
          100 101 102 103
          104 105 106 107
          108 109 110 111
          112 113 114 115
          116 117 118 119
          120 121 122 123
        </DataArray>
        <DataArray type="Int32" Name="offsets" format="ascii">
          4 8 12 16 20 24 28 32
          36 40 44 48 52 56 60 64
          68 72 76 80 84 88 92 96
          100 104 108 112 116 120 124
        </DataArray>
        <DataArray type="UInt8" Name="types" format="ascii">
          8 8 8 8 8 8 8 8 8 8 8 8 8 8 8 8 8 8 8 8
          8 8 8 8 8 8 8 8 8 8 8
        </DataArray>
      </Cells>
      <CellData Scalars="mpirank,treeid">
        <DataArray type="Int32" Name="mpirank" format="ascii">
          0 0 0 0 0 0 0 0 0 0 0 0 0 0 0 0 0 0 0 0
          0 0 0 0 0 0 0 0 0 0 0
        </DataArray>
        <DataArray type="Int32" Name="treeid" format="ascii">
          0 0 0 0 0 0 0 0 0 0 0 0 0 0 0 0 0 0 0 0
          0 0 0 0 0 0 0 0 0 0 0
        </DataArray>
      </CellData>
      <PointData>
      </PointData>
    </Piece>
  </UnstructuredGrid>
</VTKFile>

DEAL:2d::
DEAL:2d::2 Number of cells: 31 31
DEAL:2d::Refining cell 7
DEAL:2d::Checksum: 3376286008
<?xml version="1.0"?>
<VTKFile type="PUnstructuredGrid" version="0.1" byte_order="LittleEndian">
  <PUnstructuredGrid GhostLevel="0">
    <PPoints>
      <PDataArray type="Float32" Name="Position" NumberOfComponents="3" format="ascii"/>
    </PPoints>
    <PCellData Scalars="mpirank,treeid">
      <PDataArray type="Int32" Name="mpirank" format="ascii"/>
      <PDataArray type="Int32" Name="treeid" format="ascii"/>
    </PCellData>
    <PPointData>
    </PPointData>
    <Piece Source="1_0000.vtu"/>
  </PUnstructuredGrid>
</VTKFile>

<?xml version="1.0"?>
<VTKFile type="UnstructuredGrid" version="0.1" byte_order="LittleEndian">
  <UnstructuredGrid>
    <Piece NumberOfPoints="136" NumberOfCells="34">
      <Points>
        <DataArray type="Float32" Name="Position" NumberOfComponents="3" format="ascii">
            6.25000009e-03   6.25000009e-03   0.00000000e+00
            2.43750006e-01   6.25000009e-03   0.00000000e+00
            6.25000009e-03   2.43750006e-01   0.00000000e+00
            2.43750006e-01   2.43750006e-01   0.00000000e+00
            2.56249994e-01   6.25000009e-03   0.00000000e+00
            4.93750006e-01   6.25000009e-03   0.00000000e+00
            2.56249994e-01   2.43750006e-01   0.00000000e+00
            4.93750006e-01   2.43750006e-01   0.00000000e+00
            6.25000009e-03   2.56249994e-01   0.00000000e+00
            2.43750006e-01   2.56249994e-01   0.00000000e+00
            6.25000009e-03   4.93750006e-01   0.00000000e+00
            2.43750006e-01   4.93750006e-01   0.00000000e+00
            2.53125012e-01   2.53125012e-01   0.00000000e+00
            3.71874988e-01   2.53125012e-01   0.00000000e+00
            2.53125012e-01   3.71874988e-01   0.00000000e+00
            3.71874988e-01   3.71874988e-01   0.00000000e+00
            3.78125012e-01   2.53125012e-01   0.00000000e+00
            4.96874988e-01   2.53125012e-01   0.00000000e+00
            3.78125012e-01   3.71874988e-01   0.00000000e+00
            4.96874988e-01   3.71874988e-01   0.00000000e+00
            2.53125012e-01   3.78125012e-01   0.00000000e+00
            3.71874988e-01   3.78125012e-01   0.00000000e+00
            2.53125012e-01   4.96874988e-01   0.00000000e+00
            3.71874988e-01   4.96874988e-01   0.00000000e+00
            3.78125012e-01   3.78125012e-01   0.00000000e+00
            4.96874988e-01   3.78125012e-01   0.00000000e+00
            3.78125012e-01   4.96874988e-01   0.00000000e+00
            4.96874988e-01   4.96874988e-01   0.00000000e+00
            5.06250024e-01   6.25000009e-03   0.00000000e+00
            7.43749976e-01   6.25000009e-03   0.00000000e+00
            5.06250024e-01   2.43750006e-01   0.00000000e+00
            7.43749976e-01   2.43750006e-01   0.00000000e+00
            7.56250024e-01   6.25000009e-03   0.00000000e+00
            9.93749976e-01   6.25000009e-03   0.00000000e+00
            7.56250024e-01   2.43750006e-01   0.00000000e+00
            9.93749976e-01   2.43750006e-01   0.00000000e+00
            5.06250024e-01   2.56249994e-01   0.00000000e+00
            7.43749976e-01   2.56249994e-01   0.00000000e+00
            5.06250024e-01   4.93750006e-01   0.00000000e+00
            7.43749976e-01   4.93750006e-01   0.00000000e+00
            7.56250024e-01   2.56249994e-01   0.00000000e+00
            9.93749976e-01   2.56249994e-01   0.00000000e+00
            7.56250024e-01   4.93750006e-01   0.00000000e+00
            9.93749976e-01   4.93750006e-01   0.00000000e+00
            6.25000009e-03   5.06250024e-01   0.00000000e+00
            2.43750006e-01   5.06250024e-01   0.00000000e+00
            6.25000009e-03   7.43749976e-01   0.00000000e+00
            2.43750006e-01   7.43749976e-01   0.00000000e+00
            2.56249994e-01   5.06250024e-01   0.00000000e+00
            4.93750006e-01   5.06250024e-01   0.00000000e+00
            2.56249994e-01   7.43749976e-01   0.00000000e+00
            4.93750006e-01   7.43749976e-01   0.00000000e+00
            6.25000009e-03   7.56250024e-01   0.00000000e+00
            2.43750006e-01   7.56250024e-01   0.00000000e+00
            6.25000009e-03   9.93749976e-01   0.00000000e+00
            2.43750006e-01   9.93749976e-01   0.00000000e+00
            2.56249994e-01   7.56250024e-01   0.00000000e+00
            4.93750006e-01   7.56250024e-01   0.00000000e+00
            2.56249994e-01   9.93749976e-01   0.00000000e+00
            4.93750006e-01   9.93749976e-01   0.00000000e+00
            5.03125012e-01   5.03125012e-01   0.00000000e+00
            6.21874988e-01   5.03125012e-01   0.00000000e+00
            5.03125012e-01   6.21874988e-01   0.00000000e+00
            6.21874988e-01   6.21874988e-01   0.00000000e+00
            6.28125012e-01   5.03125012e-01   0.00000000e+00
            7.46874988e-01   5.03125012e-01   0.00000000e+00
            6.28125012e-01   6.21874988e-01   0.00000000e+00
            7.46874988e-01   6.21874988e-01   0.00000000e+00
            5.03125012e-01   6.28125012e-01   0.00000000e+00
            6.21874988e-01   6.28125012e-01   0.00000000e+00
            5.03125012e-01   7.46874988e-01   0.00000000e+00
            6.21874988e-01   7.46874988e-01   0.00000000e+00
            6.28125012e-01   6.28125012e-01   0.00000000e+00
            7.46874988e-01   6.28125012e-01   0.00000000e+00
            6.28125012e-01   7.46874988e-01   0.00000000e+00
            7.46874988e-01   7.46874988e-01   0.00000000e+00
            7.53125012e-01   5.03125012e-01   0.00000000e+00
            8.71874988e-01   5.03125012e-01   0.00000000e+00
            7.53125012e-01   6.21874988e-01   0.00000000e+00
            8.71874988e-01   6.21874988e-01   0.00000000e+00
            8.78125012e-01   5.03125012e-01   0.00000000e+00
            9.96874988e-01   5.03125012e-01   0.00000000e+00
            8.78125012e-01   6.21874988e-01   0.00000000e+00
            9.96874988e-01   6.21874988e-01   0.00000000e+00
            7.51562476e-01   6.26562476e-01   0.00000000e+00
            8.10937524e-01   6.26562476e-01   0.00000000e+00
            7.51562476e-01   6.85937524e-01   0.00000000e+00
            8.10937524e-01   6.85937524e-01   0.00000000e+00
            8.14062476e-01   6.26562476e-01   0.00000000e+00
            8.73437524e-01   6.26562476e-01   0.00000000e+00
            8.14062476e-01   6.85937524e-01   0.00000000e+00
            8.73437524e-01   6.85937524e-01   0.00000000e+00
            7.51562476e-01   6.89062476e-01   0.00000000e+00
            8.10937524e-01   6.89062476e-01   0.00000000e+00
            7.51562476e-01   7.48437524e-01   0.00000000e+00
            8.10937524e-01   7.48437524e-01   0.00000000e+00
            8.14062476e-01   6.89062476e-01   0.00000000e+00
            8.73437524e-01   6.89062476e-01   0.00000000e+00
            8.14062476e-01   7.48437524e-01   0.00000000e+00
            8.73437524e-01   7.48437524e-01   0.00000000e+00
            8.78125012e-01   6.28125012e-01   0.00000000e+00
            9.96874988e-01   6.28125012e-01   0.00000000e+00
            8.78125012e-01   7.46874988e-01   0.00000000e+00
            9.96874988e-01   7.46874988e-01   0.00000000e+00
            5.03125012e-01   7.53125012e-01   0.00000000e+00
            6.21874988e-01   7.53125012e-01   0.00000000e+00
            5.03125012e-01   8.71874988e-01   0.00000000e+00
            6.21874988e-01   8.71874988e-01   0.00000000e+00
            6.28125012e-01   7.53125012e-01   0.00000000e+00
            7.46874988e-01   7.53125012e-01   0.00000000e+00
            6.28125012e-01   8.71874988e-01   0.00000000e+00
            7.46874988e-01   8.71874988e-01   0.00000000e+00
            5.03125012e-01   8.78125012e-01   0.00000000e+00
            6.21874988e-01   8.78125012e-01   0.00000000e+00
            5.03125012e-01   9.96874988e-01   0.00000000e+00
            6.21874988e-01   9.96874988e-01   0.00000000e+00
            6.28125012e-01   8.78125012e-01   0.00000000e+00
            7.46874988e-01   8.78125012e-01   0.00000000e+00
            6.28125012e-01   9.96874988e-01   0.00000000e+00
            7.46874988e-01   9.96874988e-01   0.00000000e+00
            7.53125012e-01   7.53125012e-01   0.00000000e+00
            8.71874988e-01   7.53125012e-01   0.00000000e+00
            7.53125012e-01   8.71874988e-01   0.00000000e+00
            8.71874988e-01   8.71874988e-01   0.00000000e+00
            8.78125012e-01   7.53125012e-01   0.00000000e+00
            9.96874988e-01   7.53125012e-01   0.00000000e+00
            8.78125012e-01   8.71874988e-01   0.00000000e+00
            9.96874988e-01   8.71874988e-01   0.00000000e+00
            7.53125012e-01   8.78125012e-01   0.00000000e+00
            8.71874988e-01   8.78125012e-01   0.00000000e+00
            7.53125012e-01   9.96874988e-01   0.00000000e+00
            8.71874988e-01   9.96874988e-01   0.00000000e+00
            8.78125012e-01   8.78125012e-01   0.00000000e+00
            9.96874988e-01   8.78125012e-01   0.00000000e+00
            8.78125012e-01   9.96874988e-01   0.00000000e+00
            9.96874988e-01   9.96874988e-01   0.00000000e+00
        </DataArray>
      </Points>
      <Cells>
        <DataArray type="Int32" Name="connectivity" format="ascii">
          0 1 2 3
          4 5 6 7
          8 9 10 11
          12 13 14 15
          16 17 18 19
          20 21 22 23
          24 25 26 27
          28 29 30 31
          32 33 34 35
          36 37 38 39
          40 41 42 43
          44 45 46 47
          48 49 50 51
          52 53 54 55
          56 57 58 59
          60 61 62 63
          64 65 66 67
          68 69 70 71
          72 73 74 75
          76 77 78 79
          80 81 82 83
          84 85 86 87
          88 89 90 91
          92 93 94 95
          96 97 98 99
          100 101 102 103
          104 105 106 107
          108 109 110 111
          112 113 114 115
          116 117 118 119
          120 121 122 123
          124 125 126 127
          128 129 130 131
          132 133 134 135
        </DataArray>
        <DataArray type="Int32" Name="offsets" format="ascii">
          4 8 12 16 20 24 28 32
          36 40 44 48 52 56 60 64
          68 72 76 80 84 88 92 96
          100 104 108 112 116 120 124 128
          132 136
        </DataArray>
        <DataArray type="UInt8" Name="types" format="ascii">
          8 8 8 8 8 8 8 8 8 8 8 8 8 8 8 8 8 8 8 8
          8 8 8 8 8 8 8 8 8 8 8 8 8 8
        </DataArray>
      </Cells>
      <CellData Scalars="mpirank,treeid">
        <DataArray type="Int32" Name="mpirank" format="ascii">
          0 0 0 0 0 0 0 0 0 0 0 0 0 0 0 0 0 0 0 0
          0 0 0 0 0 0 0 0 0 0 0 0 0 0
        </DataArray>
        <DataArray type="Int32" Name="treeid" format="ascii">
          0 0 0 0 0 0 0 0 0 0 0 0 0 0 0 0 0 0 0 0
          0 0 0 0 0 0 0 0 0 0 0 0 0 0
        </DataArray>
      </CellData>
      <PointData>
      </PointData>
    </Piece>
  </UnstructuredGrid>
</VTKFile>

DEAL:2d::
DEAL:2d::3 Number of cells: 34 34
DEAL:2d::Refining cell 15
DEAL:2d::Checksum: 3159296977
<?xml version="1.0"?>